LAMMPS data file via write_data, version 2 Apr 2025, timestep = 120000, units = metal

28558 atoms
2 atom types

-12.084355834226514 217.4943558342274 xlo xhi
-6.883682303079468 361.24395730308856 ylo yhi
30 70 zlo zhi

Masses

1 12.011
2 1.008

Atoms # full

28556 1 2 0 -0.7422387583787167 4.744189427677981 44.74305639564229 0 0 0
1 1 1 0 -0.8633635642551134 5.832459182595027 44.637992690369366 0 0 0
28058 1 2 0 1.4535310980205143 5.415846138962117 43.256890785807684 0 0 0
2 1 1 0 0.18967549169556008 6.716676356385799 44.43455703629931 0 0 0
4 1 1 0 1.3932944556012448 6.233112868244945 43.990590801673655 0 0 0
28555 1 2 0 -1.897872539491427 6.064187894323977 44.827625134751635 0 0 0
28064 1 2 0 6.056078879626224 4.898757539139627 44.604890828545656 0 0 0
22 1 1 0 6.094696652347313 5.912507626812385 45.01828253788805 0 0 0
28067 1 2 0 8.460147572900667 4.496651535607514 45.33216904180874 0 0 0
37 1 1 0 8.504364667622728 5.6023881710669965 45.6368395259717 0 0 0
12 1 1 0 5.005044767215974 6.744188712237062 44.65730970325121 0 0 0
23 1 1 0 7.316106871789621 6.358128212372497 45.5705456752348 0 0 0
28073 1 2 0 13.274746190336863 4.317313624501198 46.72339315867424 0 0 0
28070 1 2 0 10.903253470498345 4.4341223158877465 46.28157877374961 0 0 0
56 1 1 0 10.894715301520318 5.481031811479976 46.263103554627925 0 0 0
38 1 1 0 9.728795741629096 6.215534989993374 46.145981184985786 0 0 0
28094 1 2 0 30.320049035095664 4.262327730380147 45.387817417626714 0 0 0
28091 1 2 0 28.00089078392729 4.476446165597464 44.09123336255433 0 0 0
301 1 1 0 27.834449503129868 5.440564988604894 44.63442454574646 0 0 0
352 1 1 0 30.21971409902477 5.278161381015995 45.21478506863009 0 0 0
302 1 1 0 29.000013740923897 5.9586689632233885 45.21465758305981 0 0 0
354 1 1 0 29.01725791682616 7.3280636059155615 45.519560336626476 0 0 0
28100 1 2 0 35.00929811529347 4.363955755345184 44.62281207819845 0 0 0
28103 1 2 0 37.49074645874631 4.36770273131598 44.860464982767425 0 0 0
28097 1 2 0 32.55982857481193 4.208029882710896 44.88028964468375 0 0 0
407 1 1 0 32.62060859695078 5.298357887462231 45.103029055672785 0 0 0
466 1 1 0 35.02257690290571 5.251345959959652 45.24939713096251 0 0 0
529 1 1 0 37.43103233827332 5.216636470822458 45.51144294258769 0 0 0
408 1 1 0 33.83593504404543 5.914361137304946 45.37754964390012 0 0 0
467 1 1 0 36.200865579333225 5.8209006520539095 45.69061115038184 0 0 0
353 1 1 0 31.37837097256874 5.9995770678100335 45.11159904812629 0 0 0
409 1 1 0 31.427438866853485 7.344882894340394 45.48555798694602 0 0 0
468 1 1 0 33.80776558793778 7.194852129845511 45.93396403068779 0 0 0
531 1 1 0 36.210572937956464 7.069075081430395 46.30665344990102 0 0 0
28109 1 2 0 42.16900756428713 3.7867090556141676 46.17976925673098 0 0 0
28106 1 2 0 39.91628345555369 4.196240193607386 45.33817870908868 0 0 0
596 1 1 0 39.8107515341702 5.09693621842073 45.927021364134454 0 0 0
530 1 1 0 38.624236580774735 5.847164070007535 45.82274807494907 0 0 0
28112 1 2 0 44.53006279998321 3.6121734809909825 47.00425954090796 0 0 0
3 1 1 0 -1.0138307475602257 8.819162844565328 44.9164550588009 0 0 0
28057 1 2 0 -1.8973321448969571 8.539809147726768 44.39049639465277 0 0 0
6 1 1 0 0.13140006019406414 8.069762721047214 44.849300221565485 0 0 0
24 1 1 0 4.979699356908547 7.987210803101171 45.208078365536835 0 0 0
58 1 1 0 9.750620596604204 7.597325563586775 46.20493770613787 0 0 0
355 1 1 0 30.190656480990157 8.02714295313076 45.707456455147856 0 0 0
410 1 1 0 32.61747666513434 8.004454851482679 45.825103313961336 0 0 0
469 1 1 0 35.03156091741854 7.858982346169565 46.21717636252707 0 0 0
28061 1 2 0 3.959985507771581 5.504204273683529 43.38294773530619 0 0 0
11 1 1 0 3.84469431382211 6.337500015229729 44.00002436476887 0 0 0
5 1 1 0 2.6200282748659163 6.828634442487072 44.3021223225245 0 0 0
28076 1 2 0 15.864383691441482 4.342640093550569 46.995830020436614 0 0 0
106 1 1 0 15.786667207492034 5.361449479206437 46.74267093182662 0 0 0
80 1 1 0 14.53959493210768 6.0264984514782025 46.5946728803943 0 0 0
79 1 1 0 13.308027121254415 5.396215933983633 46.56701833166609 0 0 0
57 1 1 0 12.14345295604635 6.147659295395313 46.423239421116506 0 0 0
81 1 1 0 12.132567971857778 7.564022855346295 46.55885265913338 0 0 0
108 1 1 0 14.531217349312818 7.419867145460406 46.674220445844796 0 0 0
28085 1 2 0 22.902496778401833 4.365802513308241 44.98222875119801 0 0 0
28082 1 2 0 20.488333601435365 4.506588900013821 45.086209671344825 0 0 0
28079 1 2 0 18.26349219411638 4.424664664509921 45.85492747177225 0 0 0
137 1 1 0 18.18547614849452 5.495256385164929 46.02149887316344 0 0 0
172 1 1 0 20.565632090589524 5.470078943298876 45.571137231093815 0 0 0
173 1 1 0 21.796350788619776 6.088926307030269 45.626283111489855 0 0 0
211 1 1 0 22.96160356417748 5.433652309447485 45.35007985916626 0 0 0
107 1 1 0 17.003216223150417 6.076557377535185 46.5341031113702 0 0 0
138 1 1 0 19.38946990017908 6.124264637311763 45.99754519191104 0 0 0
174 1 1 0 19.39378967676747 7.496209319139972 46.14221577822828 0 0 0
213 1 1 0 21.831362488271658 7.478786717434517 45.861596908203126 0 0 0
139 1 1 0 16.980811686901006 7.482377070634552 46.612233139742216 0 0 0
28088 1 2 0 25.268580476069133 4.48338368093504 44.25449931661288 0 0 0
254 1 1 0 25.351521819059975 5.468066205633431 44.84071380666432 0 0 0
212 1 1 0 24.179466389480204 6.051392775242423 45.4149570944647 0 0 0
255 1 1 0 26.610799120518706 6.089902446592369 44.9780406351024 0 0 0
256 1 1 0 24.25626280597053 7.366558925711068 45.79570789347123 0 0 0
303 1 1 0 26.616265641118126 7.348535930159059 45.59536231657251 0 0 0
532 1 1 0 37.358990726748495 7.772064102217177 46.541597241723075 0 0 0
667 1 1 0 42.16106245552933 4.865103865543375 46.542783028757206 0 0 0
742 1 1 0 44.56694968213161 4.7393069337256275 47.1174559268624 0 0 0
668 1 1 0 43.383445538320885 5.426952789159007 46.99696503554338 0 0 0
597 1 1 0 41.01415433759016 5.645624483764852 46.42254733708156 0 0 0
669 1 1 0 40.98440650453247 6.945412752792528 46.854588435567976 0 0 0
598 1 1 0 38.58225513538637 7.122808757561449 46.39329290884495 0 0 0
744 1 1 0 43.40252949658558 6.776886263620144 47.37363679239694 0 0 0
599 1 1 0 39.79784030394727 7.677721162579669 46.81835910850496 0 0 0
670 1 1 0 42.206883138428395 7.480982490660525 47.34339724673185 0 0 0
745 1 1 0 44.6224206095273 7.3710121431975875 47.670568152530855 0 0 0
28118 1 2 0 49.45000008019263 3.441164586364753 47.85394281102896 0 0 0
28121 1 2 0 51.91577742157881 3.3138647500411604 47.761646130007065 0 0 0
991 1 1 0 51.86005992076801 4.480434395806963 47.90064815447508 0 0 0
28115 1 2 0 47.03635809679461 3.4984256969368595 47.630763729213456 0 0 0
904 1 1 0 49.43081985801378 4.531290864265062 47.73237997232078 0 0 0
821 1 1 0 47.053563726381306 4.610621578906452 47.54743574562629 0 0 0
743 1 1 0 45.84601694804307 5.295975111516324 47.4250117453695 0 0 0
822 1 1 0 48.27338219303596 5.22952507674678 47.713584158656786 0 0 0
905 1 1 0 50.61543490089651 5.1999483813010094 47.858173792030755 0 0 0
823 1 1 0 45.83619451404119 6.691507523186694 47.74277951893779 0 0 0
906 1 1 0 48.26659287887409 6.628826687408877 47.87768873100471 0 0 0
993 1 1 0 50.65914116270455 6.588982835025732 48.10855366628049 0 0 0
994 1 1 0 51.8923768814812 7.213094206718637 48.39927746766619 0 0 0
824 1 1 0 47.0587415632702 7.3177367758496334 47.94562616040429 0 0 0
907 1 1 0 49.47786638264202 7.308901519663156 48.09685010203235 0 0 0
1082 1 1 0 54.290932776241206 4.459245982471224 48.2332239835681 0 0 0
28124 1 2 0 54.347884757983664 3.395673123212589 47.93930542120941 0 0 0
28127 1 2 0 56.57400692256901 3.3326198649166923 48.71812854894434 0 0 0
1177 1 1 0 56.57166647975485 4.361114683662549 49.03639453173035 0 0 0
1083 1 1 0 55.46233898398479 5.059948944855909 48.723608882681724 0 0 0
992 1 1 0 53.1078089854974 5.176604669565577 48.080183915530306 0 0 0
1178 1 1 0 57.79956461713141 4.911363247580393 49.42564425332902 0 0 0
28130 1 2 0 58.812203509426666 3.1442081158974204 50.00989129867044 0 0 0
1276 1 1 0 58.9816042361028 4.199095740488584 49.71179025409769 0 0 0
1278 1 1 0 57.8410096489968 6.309665764065382 49.519676236689456 0 0 0
1179 1 1 0 55.46947739135868 6.427977016394454 48.93767353576844 0 0 0
1180 1 1 0 56.648057704056484 7.039456406161499 49.341943698221776 0 0 0
1084 1 1 0 53.08599273427832 6.5130949401586715 48.33871256880567 0 0 0
1085 1 1 0 54.26949110038491 7.147799900118708 48.72465440478955 0 0 0
1279 1 1 0 59.03880678219011 6.996322149067858 49.72938945317723 0 0 0
28136 1 2 0 63.53628217370351 3.116243782798202 51.14208023576175 0 0 0
28133 1 2 0 61.285687259928594 3.112731238498098 50.09180350865305 0 0 0
1486 1 1 0 63.61057784504513 4.13770800628652 50.84339246757314 0 0 0
1379 1 1 0 61.32005387006231 4.189422115308576 50.25590265024512 0 0 0
1380 1 1 0 62.527085674693495 4.855546076038875 50.45945648901961 0 0 0
1487 1 1 0 64.91651857233404 4.705029638367401 50.80424339188754 0 0 0
1277 1 1 0 60.10535118918651 4.88543970948048 50.057023228567985 0 0 0
28139 1 2 0 66.12465889491467 2.9780808264739296 51.235666387545486 0 0 0
1597 1 1 0 66.17725528394794 4.028949763716996 51.07058920857415 0 0 0
1599 1 1 0 64.96394947322439 6.122320035732184 50.57791829270744 0 0 0
1381 1 1 0 60.23250752954098 6.288793791129727 49.87076606793542 0 0 0
1488 1 1 0 62.60452310984043 6.221361570489348 50.33151257932598 0 0 0
1382 1 1 0 61.407030022574105 6.9655174710360175 50.060733295062676 0 0 0
1489 1 1 0 63.784508274294396 6.849608171267425 50.38994587057802 0 0 0
1600 1 1 0 66.22452753892696 6.796161902659549 50.563297554461464 0 0 0
28145 1 2 0 71.06166094598206 2.948564356775993 51.545734409361124 0 0 0
28142 1 2 0 68.59571003840276 3.1006590862370675 51.72571186781556 0 0 0
1712 1 1 0 68.58020498453496 4.075430354257341 51.33812235097423 0 0 0
1831 1 1 0 71.05344091777773 4.015905393951051 51.27418135422607 0 0 0
1713 1 1 0 69.8427481078701 4.6874024159544305 51.17910866348875 0 0 0
1598 1 1 0 67.35670085542034 4.685578656031547 51.14405625283455 0 0 0
1832 1 1 0 72.27031216996514 4.63663403466154 50.993378276286876 0 0 0
28148 1 2 0 73.33833202551605 2.910146803815426 50.369589611059276 0 0 0
1954 1 1 0 73.4416654484143 3.929039073223695 50.72720748219443 0 0 0
1833 1 1 0 69.88750086655885 6.049032999618282 50.89034049508115 0 0 0
1714 1 1 0 67.41814710715178 6.081795998238027 50.83999950876103 0 0 0
1956 1 1 0 72.31202958441557 6.013653727971354 50.775863574404404 0 0 0
1834 1 1 0 71.09539861572898 6.740974514468865 50.6873527025577 0 0 0
1715 1 1 0 68.68095699083123 6.746712656139117 50.72984446494594 0 0 0
1957 1 1 0 73.54079790051777 6.630460261919717 50.62729678241899 0 0 0
28154 1 2 0 78.1811831433047 2.7676518455510184 51.85597872283204 0 0 0
28151 1 2 0 75.86612467190417 2.8015759951125077 51.18249908938729 0 0 0
2212 1 1 0 78.27114219625045 3.791719682690898 51.487770266122595 0 0 0
2081 1 1 0 75.88288923178867 3.869951387039613 51.04653715655881 0 0 0
1955 1 1 0 74.69141776325104 4.5166523774588505 50.82938883283272 0 0 0
2082 1 1 0 77.15109653793127 4.5141984021717985 51.13629445435647 0 0 0
2213 1 1 0 79.50180984640687 4.406136137506763 51.32678388895915 0 0 0
28157 1 2 0 80.68856279308571 2.7269384940416455 51.180772867453236 0 0 0
2347 1 1 0 80.72272492491092 3.7645258572072073 51.38840818426333 0 0 0
2349 1 1 0 79.59730978175062 5.844260862910756 51.16559103018295 0 0 0
2083 1 1 0 74.71988276006668 5.881627695032323 50.94797045090928 0 0 0
2214 1 1 0 77.17799432544403 5.916203866900039 51.10810993790437 0 0 0
2084 1 1 0 75.94475912525678 6.6043568787446 50.95178631058583 0 0 0
2215 1 1 0 78.39218357629193 6.587566344022822 51.118204571403375 0 0 0
2350 1 1 0 80.81247967368297 6.546683995949865 51.5206664324907 0 0 0
28160 1 2 0 83.17367602017399 2.7458285096542383 51.205209984120216 0 0 0
28163 1 2 0 85.56911381082485 2.6516581828760692 52.1283662851977 0 0 0
2629 1 1 0 85.56677280983443 3.7917660893720004 52.2156834145634 0 0 0
2486 1 1 0 83.18400932133363 3.786292838967725 51.53564462226985 0 0 0
2630 1 1 0 86.74733835409494 4.465893077984321 52.41997130712875 0 0 0
2487 1 1 0 84.3466949288323 4.439039344924629 52.000683148230806 0 0 0
2348 1 1 0 81.93899055072552 4.458786946458881 51.58869353888075 0 0 0
2778 1 1 0 86.81508788108844 5.856690019949703 52.43524989795682 0 0 0
2631 1 1 0 84.40495927213782 5.831768662528443 52.0265303991159 0 0 0
28166 1 2 0 87.90116095563019 2.6586188709293967 52.54740172742343 0 0 0
2776 1 1 0 87.95871100792868 3.7100053846007874 52.557255778214966 0 0 0
2488 1 1 0 81.99474302796008 5.841424853326506 51.74117593831604 0 0 0
2779 1 1 0 88.03138985091378 6.524705006037568 52.48566295805347 0 0 0
2632 1 1 0 85.56951790949422 6.536639757223353 52.35137940540708 0 0 0
2489 1 1 0 83.20405739532215 6.486854007241286 51.937667579657294 0 0 0
2927 1 1 0 90.42978193262408 3.738893067445037 52.806595335389076 0 0 0
2928 1 1 0 91.60569541292774 4.372353923126086 53.1524381537019 0 0 0
2777 1 1 0 89.16387632593417 4.372535650153589 52.720630290270066 0 0 0
3243 1 1 0 94.07823211820326 5.730051315923134 53.22644857182654 0 0 0
2929 1 1 0 89.18919957045915 5.7599992426676145 52.67292316479537 0 0 0
3084 1 1 0 91.6087019063079 5.767870218222425 53.0585043785849 0 0 0
3085 1 1 0 92.84595679804738 6.445980658819494 53.22679641000987 0 0 0
2930 1 1 0 90.43288079154543 6.49934473599993 52.73192032511027 0 0 0
3244 1 1 0 95.24391988113905 6.408017587999005 53.392107632075735 0 0 0
8 1 1 0 -1.0050577194678514 10.083125383577329 45.53592931264178 0 0 0
28059 1 2 0 -1.9750096448336514 10.5914980884627 45.7054517164617 0 0 0
28060 1 2 0 -1.919570807280314 11.811138198278577 47.694642943946505 0 0 0
17 1 1 0 0.10720005675765165 11.84891498214699 46.863183484576645 0 0 0
9 1 1 0 0.11112579036087489 10.686295024277378 46.08107032810859 0 0 0
10 1 1 0 -0.9848196405345178 12.378446601431303 47.498004361873456 0 0 0
18 1 1 0 1.36104936007645 12.559400982286416 47.01268586890131 0 0 0
15 1 1 0 1.3429021389058544 10.004260766837394 45.86376148893846 0 0 0
7 1 1 0 1.302167528508198 8.688693572672282 45.16834930672257 0 0 0
28062 1 2 0 -1.7931400359136713 14.071815502853326 48.55056137421917 0 0 0
19 1 1 0 -0.8835779997111342 13.647455439384718 48.04579424494134 0 0 0
20 1 1 0 0.14384214974923815 14.554429276045195 47.717229462406316 0 0 0
30 1 1 0 1.3347927427783581 13.920089468077261 47.32214505507444 0 0 0
14 1 1 0 3.792149733814309 8.771985014748507 45.196917651073946 0 0 0
26 1 1 0 3.7661154275276996 10.016048741148456 45.79385955913976 0 0 0
13 1 1 0 2.5646414118739163 8.090448460595935 44.930837687737124 0 0 0
16 1 1 0 2.5341181187701665 10.641142161062277 46.12650933126034 0 0 0
27 1 1 0 4.97949819860138 10.56144291083806 46.24085430300122 0 0 0
25 1 1 0 6.161829340111467 8.481965606447 45.82947308669536 0 0 0
41 1 1 0 6.1915364663352825 9.84855350057077 46.11604223910642 0 0 0
39 1 1 0 7.352276168006632 7.72069141730047 45.92881079164013 0 0 0
43 1 1 0 4.999655503515026 11.934705891978961 46.67366675373452 0 0 0
42 1 1 0 7.367518789386541 10.49210203477714 46.42634210462423 0 0 0
28 1 1 0 2.5458839403379034 11.948687164732224 46.621348852136755 0 0 0
62 1 1 0 7.371963577638358 11.84522367290856 46.77378665476894 0 0 0
29 1 1 0 3.7678087554959934 12.610206262119139 46.831462887892194 0 0 0
44 1 1 0 6.2029677594523704 12.57421851152975 46.970704771404314 0 0 0
40 1 1 0 8.559988488015602 8.335562403635587 46.1625470528614 0 0 0
60 1 1 0 8.549096844012379 9.749118610827573 46.35059418573578 0 0 0
63 1 1 0 8.603567001926372 12.506182511483967 46.98383119987838 0 0 0
87 1 1 0 8.6158099381907 13.843288352371534 47.41338583559587 0 0 0
45 1 1 0 3.7418318303157214 13.983887663682413 47.14361982975513 0 0 0
31 1 1 0 2.5420205962766502 14.613112948756982 47.4628261601702 0 0 0
46 1 1 0 4.976868131985896 14.597551026805885 47.390010429727404 0 0 0
64 1 1 0 6.216561076056593 13.904431673385208 47.31385465790525 0 0 0
65 1 1 0 7.442660930957629 14.567051470813318 47.58148487721704 0 0 0
59 1 1 0 10.946609161234093 8.242084924137865 46.58054492291169 0 0 0
83 1 1 0 10.958996426485939 9.64451978510263 46.67933771520984 0 0 0
84 1 1 0 12.17002782124974 10.305798340545731 46.83453166924267 0 0 0
82 1 1 0 13.37502426244745 8.168580944994716 46.714640725256345 0 0 0
110 1 1 0 13.348991947151045 9.567844188426694 46.71539945690697 0 0 0
61 1 1 0 9.807014620018013 10.345662802439865 46.68579727630423 0 0 0
85 1 1 0 9.77945022847685 11.732731607894898 46.979784048310606 0 0 0
112 1 1 0 12.19064751849741 11.685173002452931 47.14159164379047 0 0 0
111 1 1 0 14.540505632020771 10.238840993769902 46.95381645240481 0 0 0
143 1 1 0 14.601169629708888 11.61324346129943 47.188728951048695 0 0 0
86 1 1 0 10.969557471013232 12.423710819723045 47.21346364939982 0 0 0
113 1 1 0 13.37366493189204 12.326987959354003 47.27478931480982 0 0 0
109 1 1 0 15.750158322928048 8.143192798109787 46.70505574173524 0 0 0
141 1 1 0 15.770263289201406 9.523612275144483 46.928222465327536 0 0 0
144 1 1 0 15.825961808758105 12.295254365251154 47.23248722062078 0 0 0
114 1 1 0 10.985443689751147 13.782899306928439 47.55332096779 0 0 0
145 1 1 0 13.445338431832536 13.73924146705345 47.4470266438866 0 0 0
180 1 1 0 15.85431685132064 13.677197110875511 47.358732164994294 0 0 0
88 1 1 0 9.845384337482702 14.483527499286911 47.658169977639936 0 0 0
115 1 1 0 12.224285493869637 14.429294731657194 47.63137128863873 0 0 0
146 1 1 0 14.669034262643088 14.42432965200544 47.36167966708326 0 0 0
140 1 1 0 18.18370764741575 8.159292803157731 46.44799288463325 0 0 0
176 1 1 0 18.183045333935134 9.542542622153636 46.59383361364317 0 0 0
175 1 1 0 20.589209442609018 8.212713244566848 46.0612907684436 0 0 0
215 1 1 0 20.57957789509514 9.581616006894603 46.29873871167897 0 0 0
142 1 1 0 16.993678162837316 10.236696416674981 46.761668214490285 0 0 0
177 1 1 0 19.364290222932777 10.245768425315763 46.61149458173369 0 0 0
178 1 1 0 17.01554937560874 11.626624979289321 46.975285219816094 0 0 0
217 1 1 0 19.428674944603674 11.628427276532879 46.76140578583697 0 0 0
216 1 1 0 21.827755628587944 10.196772012621146 46.507879767334884 0 0 0
260 1 1 0 21.829303438498314 11.571954802584024 46.64169354366879 0 0 0
179 1 1 0 18.253880541981438 12.333677443345941 46.92372822724574 0 0 0
218 1 1 0 20.662896457209314 12.306936858010054 46.81485664980468 0 0 0
214 1 1 0 23.068125462749656 8.122834832693293 46.04826915398148 0 0 0
258 1 1 0 23.05257386476113 9.483021655393102 46.35082229502471 0 0 0
261 1 1 0 23.02580139019986 12.254777136000708 46.78672117413445 0 0 0
309 1 1 0 23.056250191590138 13.611997402263182 47.16581145141025 0 0 0
219 1 1 0 18.250149338689326 13.707600373917082 47.107193429945795 0 0 0
262 1 1 0 20.667588313763886 13.650389743852351 47.11450256943439 0 0 0
181 1 1 0 17.04984320272795 14.393709635281468 47.42696606358108 0 0 0
220 1 1 0 19.45944280626573 14.408059546071609 47.22812688911746 0 0 0
263 1 1 0 21.865455227913763 14.349164835284867 47.181513544906245 0 0 0
257 1 1 0 25.438276126881384 8.058641126071498 45.89217857439047 0 0 0
305 1 1 0 25.398869385367803 9.463638059052549 46.075814791028336 0 0 0
304 1 1 0 27.8372670534174 8.03717074903562 45.67776479104294 0 0 0
306 1 1 0 26.64118310957486 10.087020365977175 46.1693498309488 0 0 0
259 1 1 0 24.231135130220252 10.218590975328553 46.32601070743164 0 0 0
356 1 1 0 27.83767225229586 9.39823940349649 46.00961415648865 0 0 0
358 1 1 0 26.704516581982702 11.465634953086173 46.442294825919014 0 0 0
307 1 1 0 24.258633432352887 11.58446570997495 46.56204089063891 0 0 0
357 1 1 0 29.037002555246936 10.077281656372648 46.13037802020898 0 0 0
413 1 1 0 29.079728704210993 11.428000093150331 46.4760072123812 0 0 0
308 1 1 0 25.530375927367423 12.209155459639017 46.63513754430779 0 0 0
359 1 1 0 27.91780753426822 12.137283593305575 46.65978020121025 0 0 0
411 1 1 0 30.22847894874566 9.40105840205911 45.94632120888462 0 0 0
414 1 1 0 30.27535945026917 12.054202480105722 46.75580185881276 0 0 0
415 1 1 0 27.879042754979046 13.499994221058795 47.04499279394307 0 0 0
474 1 1 0 30.299454571199504 13.41813830225264 47.11698346003678 0 0 0
360 1 1 0 25.50659740160473 13.542725056907273 47.0033514991184 0 0 0
310 1 1 0 24.292863863909623 14.207504374567783 47.235587612340424 0 0 0
361 1 1 0 26.70643906892453 14.227554475374365 47.10750099143142 0 0 0
416 1 1 0 29.093488224392978 14.138616609092129 47.216535663792165 0 0 0
470 1 1 0 32.586323454325324 9.374471674759327 46.1664813774859 0 0 0
412 1 1 0 31.393564479495872 10.022586321011683 46.29469840663142 0 0 0
533 1 1 0 34.96264765275137 9.230806296703953 46.50115402779076 0 0 0
471 1 1 0 33.805004795769534 9.972212763279906 46.41129826815558 0 0 0
472 1 1 0 31.4252221633486 11.419030639079725 46.60379740096833 0 0 0
535 1 1 0 33.85521352444056 11.30637576879004 46.70041217726824 0 0 0
534 1 1 0 36.16826155982436 9.853026250332835 46.779016272555246 0 0 0
602 1 1 0 36.228933533139326 11.210121458674415 47.0039819009456 0 0 0
536 1 1 0 35.04427808980994 11.936892912225247 47.0063168988954 0 0 0
473 1 1 0 32.6820708239164 12.039231928287087 46.76646309728226 0 0 0
600 1 1 0 37.401032294953346 9.17101910206043 46.73049851699465 0 0 0
603 1 1 0 37.47728347677105 11.86919606143173 47.31943069377465 0 0 0
537 1 1 0 32.69279952996508 13.389781410129928 47.19381262381524 0 0 0
604 1 1 0 35.08964691517377 13.290717533257016 47.284357380889034 0 0 0
675 1 1 0 37.48005646742357 13.174182802014911 47.772796953559975 0 0 0
475 1 1 0 31.47649693655213 14.142830325952342 47.09569641373389 0 0 0
538 1 1 0 33.8866976485577 14.038822111836275 47.41616163961556 0 0 0
605 1 1 0 36.322702528292716 13.946545945347257 47.581570326442865 0 0 0
671 1 1 0 39.81723313491232 9.013460620012282 47.27085942117456 0 0 0
746 1 1 0 42.211746335264465 8.800253618239742 47.64722605774765 0 0 0
601 1 1 0 38.62906410765921 9.72370749300638 47.10976939963552 0 0 0
672 1 1 0 41.03941269302934 9.575414276213092 47.702496432552955 0 0 0
673 1 1 0 38.65824863294235 11.090721323805504 47.35595973295055 0 0 0
748 1 1 0 41.0305565511898 10.93725622421896 47.97406616417862 0 0 0
747 1 1 0 43.47499910702628 9.463679386701202 47.78139552325437 0 0 0
827 1 1 0 43.4578945302697 10.863482202136488 47.986406503988455 0 0 0
674 1 1 0 39.825993301729184 11.642300262279889 47.865540469877736 0 0 0
749 1 1 0 42.28037446532807 11.567476295895819 48.1756062034268 0 0 0
829 1 1 0 42.27306769953381 12.932473614817667 48.474725680552794 0 0 0
750 1 1 0 39.86230913051276 13.014088785068342 48.294107632028606 0 0 0
825 1 1 0 44.65955205920964 8.74474689570246 47.88766578623827 0 0 0
828 1 1 0 44.67198910160797 11.510646958588179 48.20135616801818 0 0 0
912 1 1 0 44.691401107614126 12.883388348058919 48.607161064519744 0 0 0
676 1 1 0 38.68799742871267 13.789205035124361 48.25690953544451 0 0 0
751 1 1 0 41.06968405669986 13.646167914444082 48.53238106056018 0 0 0
830 1 1 0 43.474025340690375 13.63475758710312 48.718106119494756 0 0 0
914 1 1 0 43.52335349841759 15.004323379898974 48.83293502059538 0 0 0
908 1 1 0 47.05526965084904 8.677047155548856 48.19150571947284 0 0 0
995 1 1 0 49.50178519401897 8.711863604890404 48.240601179920944 0 0 0
909 1 1 0 48.30065597343424 9.350162911620988 48.3773839344373 0 0 0
826 1 1 0 45.85250686977796 9.428289661398885 48.127432398805986 0 0 0
910 1 1 0 45.85308294975711 10.787904792608114 48.3680035376011 0 0 0
997 1 1 0 48.326907602401405 10.753753263318742 48.3869978587848 0 0 0
996 1 1 0 50.741340632948656 9.298009104177513 48.514518677153646 0 0 0
1088 1 1 0 50.75261263799745 10.712237977488872 48.54914463710186 0 0 0
911 1 1 0 47.11412555051514 11.431542132594696 48.53650738447069 0 0 0
998 1 1 0 49.563600904666664 11.445938234158774 48.41633356805545 0 0 0
1090 1 1 0 49.55556812260405 12.817809668975762 48.59164409491838 0 0 0
999 1 1 0 47.13449287521883 12.828813661911337 48.769061482607306 0 0 0
1086 1 1 0 51.9348679534331 8.66368056318138 48.451881076227544 0 0 0
1089 1 1 0 51.97457521404746 11.391013394205551 48.662272325787754 0 0 0
1185 1 1 0 51.950777036141844 12.794371105812722 48.803352124056765 0 0 0
913 1 1 0 45.95309635661436 13.514477884565526 48.76059808249465 0 0 0
1000 1 1 0 48.354052377291026 13.536886592872545 48.78775345269096 0 0 0
1091 1 1 0 50.75435078236153 13.476124609838013 48.81099442985817 0 0 0
1001 1 1 0 45.94735776326254 14.987721967723136 48.74924614589412 0 0 0
1092 1 1 0 48.35592809261152 14.919816744394186 48.940809440619184 0 0 0
1187 1 1 0 50.785898334478404 14.861162462233004 48.96116223491053 0 0 0
1280 1 1 0 56.67042172355788 8.45363195169886 49.469254048447475 0 0 0
1181 1 1 0 54.33368154993701 8.53520703623989 48.91839141274228 0 0 0
1182 1 1 0 55.49506204268165 9.1864336103569 49.31432560179598 0 0 0
1087 1 1 0 53.19669623498564 9.280733165707577 48.68106958679206 0 0 0
1282 1 1 0 55.49205570298578 10.53853820139776 49.50202646818336 0 0 0
1183 1 1 0 53.155937519291825 10.643032153635613 48.84971973603397 0 0 0
1281 1 1 0 57.86663533245614 9.108103088193914 49.750938572731634 0 0 0
1385 1 1 0 57.87813654798012 10.497160880439196 49.72492060927754 0 0 0
1184 1 1 0 54.30008748844561 11.268048855599947 49.308445234168516 0 0 0
1283 1 1 0 56.705784034572375 11.218762440041782 49.67450071232522 0 0 0
1284 1 1 0 54.35565278672233 12.63133008190465 49.33400694172771 0 0 0
1387 1 1 0 56.71793346501104 12.619497779342996 49.81900225889718 0 0 0
1383 1 1 0 59.03424143372402 8.379683866354775 49.78029307897308 0 0 0
1386 1 1 0 59.095166340579965 11.158319325046012 49.77896299492887 0 0 0
1494 1 1 0 59.1324529800258 12.550800733481971 49.94616954498786 0 0 0
1186 1 1 0 53.19204174006654 13.417752547320863 49.05039811647932 0 0 0
1285 1 1 0 55.542502006442575 13.30665135519681 49.65627027031365 0 0 0
1388 1 1 0 57.9561561244726 13.28844913711131 49.857605241416216 0 0 0
1496 1 1 0 57.999353011964715 14.679906866364998 49.85294398737013 0 0 0
1286 1 1 0 53.183872650997344 14.819937031208312 49.289839922370504 0 0 0
1389 1 1 0 55.627006116051675 14.737283783636673 49.50057185408032 0 0 0
1490 1 1 0 61.41840807190944 8.358705515127035 50.07492527357405 0 0 0
1601 1 1 0 63.80491497513704 8.252205412300713 50.25332409928121 0 0 0
1491 1 1 0 62.640719096939364 9.019281197572314 50.16577952233186 0 0 0
1384 1 1 0 60.247281556952444 9.021462472542199 49.86338200556613 0 0 0
1602 1 1 0 65.04958245171856 8.90158262701505 50.312625191413574 0 0 0
1603 1 1 0 62.68521276109297 10.448836914790988 50.157007645741004 0 0 0
1718 1 1 0 65.07132342490446 10.334062885907688 50.401930232839355 0 0 0
1492 1 1 0 60.306199241439 10.434819256917823 49.776970139506986 0 0 0
1493 1 1 0 61.52350143300636 11.149044638733116 49.94621566291446 0 0 0
1604 1 1 0 63.908447060687394 11.09792898536396 50.43329917196575 0 0 0
1605 1 1 0 61.5571426562836 12.49608438008314 49.98539289700474 0 0 0
1720 1 1 0 63.94747887315553 12.470167275806102 50.26349504520292 0 0 0
1716 1 1 0 66.27774214786537 8.212425941573864 50.42211224576402 0 0 0
1719 1 1 0 66.33409798273999 10.93365575417235 50.45748968787153 0 0 0
1839 1 1 0 66.4004008611158 12.34429112190325 50.30031224916984 0 0 0
1606 1 1 0 62.761831905164826 13.206779010746509 50.12826482152109 0 0 0
1721 1 1 0 65.22753932754969 13.094463168537505 50.16498686887453 0 0 0
1495 1 1 0 60.35177928131398 13.212378582278113 50.052427356027195 0 0 0
1722 1 1 0 62.81565268990619 14.591429522588406 50.071068959107805 0 0 0
1607 1 1 0 60.36926021928731 14.592277709200925 50.1000650507671 0 0 0
1841 1 1 0 65.27583253749877 14.473463272343821 50.14207644641056 0 0 0
1835 1 1 0 68.73075666726578 8.172907996818164 50.41280424890742 0 0 0
1958 1 1 0 71.10326942653406 8.092251373395483 50.370663500515924 0 0 0
1836 1 1 0 69.91636348660435 8.872172976283561 50.376020080941714 0 0 0
1959 1 1 0 72.31463773542598 8.762307674089753 50.37845401729656 0 0 0
1717 1 1 0 67.51666476251089 8.834663834946218 50.4668010531191 0 0 0
1837 1 1 0 67.56691743901649 10.265496143678956 50.38523786419141 0 0 0
1960 1 1 0 69.95941457294963 10.228715708707227 50.41455451677503 0 0 0
2087 1 1 0 72.39684948296781 10.133951382459859 50.321379544558226 0 0 0
1838 1 1 0 68.73731348918885 10.92730056608955 50.47076567479573 0 0 0
1961 1 1 0 71.16209756100798 10.897071678021359 50.43284361711136 0 0 0
1962 1 1 0 68.82085736260633 12.349309865955348 50.39695915880614 0 0 0
2089 1 1 0 71.25827386351386 12.297994250612287 50.39879648126085 0 0 0
2085 1 1 0 73.52844879889051 8.023418248730954 50.398368648911955 0 0 0
2088 1 1 0 73.60852764184035 10.817485722617079 50.4599674578657 0 0 0
2220 1 1 0 73.646519208944 12.252010754416975 50.527145868544885 0 0 0
1963 1 1 0 70.08801525169739 12.974740622083665 50.22726684339342 0 0 0
2090 1 1 0 72.47938691007546 12.971934623024548 50.565658478099174 0 0 0
1840 1 1 0 67.61078472598686 13.07067517718611 50.481519450616425 0 0 0
1964 1 1 0 67.63155831755415 14.44675673162984 50.33777228209029 0 0 0
2091 1 1 0 70.07647073236421 14.3879465006024 50.163632966096316 0 0 0
2222 1 1 0 72.50809808597859 14.37689263130309 50.47082704713793 0 0 0
2351 1 1 0 78.4022314744853 7.948527503622145 50.90583162657603 0 0 0
2216 1 1 0 75.94961925720753 7.990313983972127 50.81918523464325 0 0 0
2352 1 1 0 79.63162088699973 8.646332874793366 51.08757307738854 0 0 0
2217 1 1 0 77.17246667936368 8.662333757829547 50.815343863963086 0 0 0
2086 1 1 0 74.75420305104038 8.72885035333738 50.5860271904116 0 0 0
2353 1 1 0 77.22015787635914 10.078825124861122 50.7036571395459 0 0 0
2492 1 1 0 79.6374204386938 10.027874348488094 50.83727500680543 0 0 0
2218 1 1 0 74.83664439346663 10.104749925099494 50.528657535125454 0 0 0
2354 1 1 0 78.45626765517315 10.722732932000202 50.66243177267058 0 0 0
2219 1 1 0 76.03540435259512 10.852837192872105 50.57187777757193 0 0 0
2355 1 1 0 76.06961646828927 12.22352198225704 50.45592755801132 0 0 0
2494 1 1 0 78.49209726869493 12.168235639170383 50.539891066018775 0 0 0
2495 1 1 0 79.69382902098798 12.848970839534122 50.65963494604105 0 0 0