LAMMPS data file via write_data, version 22 Jul 2025, timestep = 58, units = metal

28558 atoms
2 atom types

-20.943968 226.353968 xlo xhi
-21.09 375.450275 ylo yhi
30 70 zlo zhi

Masses

1 12.011
2 1.008

Atoms # full

1 1 1 0 0 0 50 0 0 0
2 1 1 0 1.2123249215537104 0.739331950927221 50 0 0 0
3 1 1 0 0 2.840563 50 0 0 0
4 1 1 0 2.4748654875030245 0.13885856272676467 50 0 0 0
5 1 1 0 3.689545948092625 0.8317661442525115 50 0 0 0
6 1 1 0 1.2102215798249867 2.1553320689497646 50 0 0 0
7 1 1 0 2.4274748602358085 2.8989206914264605 50 0 0 0
8 1 1 0 0 4.260845 50 0 0 0
9 1 1 0 1.1973320348044683 4.998444765139491 50 0 0 0
10 1 1 0 0 7.101408 50 0 0 0
11 1 1 0 4.933243567796959 0.2077346599203966 50 0 0 0
12 1 1 0 6.151062463229165 0.8819275090257719 50 0 0 0
13 1 1 0 3.6735054181153157 2.2398917532315465 50 0 0 0
14 1 1 0 4.895952577587554 2.955543613468897 50 0 0 0
15 1 1 0 2.433081745825399 4.313975579697372 50 0 0 0
16 1 1 0 3.6550822972275685 5.038492844699703 50 0 0 0
17 1 1 0 1.210114793797566 6.407583473774718 50 0 0 0
18 1 1 0 2.428509643994643 7.1373231071145256 50 0 0 0
22 1 1 0 7.3857574238632395 0.2430161828292544 50 0 0 0
24 1 1 0 6.137569874506962 2.2879771447353514 50 0 0 0
25 1 1 0 7.3638252656639525 2.9878520202058976 50 0 0 0
26 1 1 0 4.89438416793795 4.363612105904236 50 0 0 0
27 1 1 0 6.121586468483998 5.071405259947962 50 0 0 0
28 1 1 0 3.6626571221070754 6.450951522891422 50 0 0 0
29 1 1 0 4.887851569918524 7.165424774845517 50 0 0 0
41 1 1 0 7.359781296486424 4.393898258769948 50 0 0 0
43 1 1 0 6.123830048270852 6.481269551709189 50 0 0 0
44 1 1 0 7.353768107348452 7.184093210440229 50 0 0 0
28057 1 2 0 -0.943968 2.295563 50 0 0 0
28058 1 2 0 2.513335328633721 -0.951608175909348 50 0 0 0
28059 1 2 0 -0.943968 4.805845 50 0 0 0
28060 1 2 0 -0.943968 6.556408 50 0 0 0
28061 1 2 0 4.954792825078558 -0.8832136282040961 50 0 0 0
28064 1 2 0 7.395560681058502 -0.848238173988369 50 0 0 0
28555 1 2 0 0 -1.09 50 0 0 0
28556 1 2 0 -0.943968 0.545 50 0 0 0
23 1 1 0 8.60835314413542 0.9053894468484499 50 0 0 0
37 1 1 0 9.839180873657956 0.2582305160723912 50 0 0 0
38 1 1 0 11.06581031295095 0.9136824625099021 50 0 0 0
39 1 1 0 8.60031890286666 2.311171420761978 50 0 0 0
40 1 1 0 9.828890001406315 3.002682013222566 50 0 0 0
42 1 1 0 8.589881334480307 5.0905651657952795 50 0 0 0
56 1 1 0 12.295621907353768 0.2628819992349518 50 0 0 0
57 1 1 0 13.524850235125415 0.914957601737617 50 0 0 0
58 1 1 0 11.061991321551245 2.319769337232037 50 0 0 0
59 1 1 0 12.292006588521426 3.0074117559938225 50 0 0 0
60 1 1 0 9.825444105664491 4.408080829628246 50 0 0 0
61 1 1 0 11.056601257177388 5.0993143239644 50 0 0 0
62 1 1 0 8.58952316046515 6.498884885843364 50 0 0 0
63 1 1 0 9.821254990674445 7.194810938107322 50 0 0 0
79 1 1 0 14.75485463965869 0.2631409715110811 50 0 0 0
80 1 1 0 15.985322061989423 0.9140793930129343 50 0 0 0
81 1 1 0 13.523442788472652 2.321391997352814 50 0 0 0
82 1 1 0 14.754154431756945 3.007749356414916 50 0 0 0
83 1 1 0 12.289859959316559 4.412788710221145 50 0 0 0
84 1 1 0 13.52126625830973 5.101998505703873 50 0 0 0
85 1 1 0 11.055599414690558 6.506966749232622 50 0 0 0
86 1 1 0 12.287621253382557 7.199732387906018 50 0 0 0
106 1 1 0 17.215693943677636 0.26228317694579706 50 0 0 0
107 1 1 0 18.44650582407034 0.9131230540072564 50 0 0 0
108 1 1 0 15.984988899912755 2.320705090520086 50 0 0 0
109 1 1 0 17.215876008885793 3.006970170909493 50 0 0 0
110 1 1 0 14.753081949130937 4.413242184532459 50 0 0 0
111 1 1 0 15.984352317339805 5.102141922858324 50 0 0 0
112 1 1 0 13.520429330321868 6.509476198980645 50 0 0 0
113 1 1 0 14.752158950999686 7.201313114825447 50 0 0 0
137 1 1 0 19.67702652376447 0.2614909307873944 50 0 0 0
138 1 1 0 20.90776279148013 0.9125367043783136 50 0 0 0
139 1 1 0 18.446527396593392 2.319791862583438 50 0 0 0
140 1 1 0 19.67731361118059 3.006315892293729 50 0 0 0
141 1 1 0 17.215443084294527 4.412528946646824 50 0 0 0
142 1 1 0 18.446437837663225 5.101713411618122 50 0 0 0
143 1 1 0 15.98385922087002 6.509603313780381 50 0 0 0
144 1 1 0 17.215151199034338 7.201513786062383 50 0 0 0
174 1 1 0 20.907846423246163 2.3191762222693275 50 0 0 0
176 1 1 0 19.677171941786618 4.411870194498119 50 0 0 0
177 1 1 0 20.90788082703633 5.101390828210208 50 0 0 0
178 1 1 0 18.446204469404247 6.50916218245897 50 0 0 0
179 1 1 0 19.677100315338016 7.201392067310979 50 0 0 0
217 1 1 0 20.907782582996465 6.508798667385859 50 0 0 0
28067 1 2 0 9.842310063134578 -0.8332475794774267 50 0 0 0
28070 1 2 0 12.295819332183635 -0.8287681792256851 50 0 0 0
28073 1 2 0 14.754339239753905 -0.8286099774722979 50 0 0 0
28076 1 2 0 17.21531692408592 -0.8295001606927752 50 0 0 0
28079 1 2 0 19.676886491482236 -0.8302907720134457 50 0 0 0
172 1 1 0 22.138229852392183 0.2609599874773214 50 0 0 0
173 1 1 0 23.368756958624147 0.912238948684512 50 0 0 0
175 1 1 0 22.13842863996894 3.0059694314839933 50 0 0 0
211 1 1 0 24.599085815661162 0.26063739203507386 50 0 0 0
212 1 1 0 25.829403717735335 0.9121042017165928 50 0 0 0
213 1 1 0 23.36881838975878 2.3188281299577156 50 0 0 0
214 1 1 0 24.59919050839795 3.0058244285785705 50 0 0 0
215 1 1 0 22.138387891075155 4.411480828488491 50 0 0 0
216 1 1 0 23.368849566289928 5.101243121690419 50 0 0 0
218 1 1 0 22.13837048162728 7.201295287118843 50 0 0 0
254 1 1 0 27.059595220020878 0.26045784840774594 50 0 0 0
255 1 1 0 28.289757015956372 0.9120514742682266 50 0 0 0
256 1 1 0 25.82943518941145 2.318645614065449 50 0 0 0
257 1 1 0 27.059640354597985 3.0057750155825596 50 0 0 0
258 1 1 0 24.599176152531854 4.411283367666361 50 0 0 0
259 1 1 0 25.829446755088096 5.101194714262764 50 0 0 0
260 1 1 0 23.36880819803546 6.508593953798707 50 0 0 0
261 1 1 0 24.599167644506142 7.2012611440815295 50 0 0 0
301 1 1 0 29.519849389789698 0.2603708311790785 50 0 0 0
302 1 1 0 30.74991761015964 0.9120349935077329 50 0 0 0
303 1 1 0 28.28976997575787 2.3185571122880155 50 0 0 0
304 1 1 0 29.519865639017087 3.0057633653638445 50 0 0 0
305 1 1 0 27.059632683285695 4.411188709763039 50 0 0 0
306 1 1 0 28.289771768835877 5.1011858135981605 50 0 0 0
307 1 1 0 25.829428117283694 6.508491111343717 50 0 0 0
308 1 1 0 27.059627119432577 7.201258606537261 50 0 0 0
352 1 1 0 31.979953836720917 0.2603360347081539 50 0 0 0
353 1 1 0 33.20997717428716 0.9120313537365718 50 0 0 0
354 1 1 0 30.749922221235195 2.318519240564042 50 0 0 0
355 1 1 0 31.979958864118508 3.0057633217014788 50 0 0 0
356 1 1 0 29.519861890817573 4.411145959825715 50 0 0 0
357 1 1 0 30.749921980835975 5.10118878488666 50 0 0 0
358 1 1 0 28.28976401990433 6.508441182274354 50 0 0 0
359 1 1 0 29.51985929549706 7.201266109471271 50 0 0 0
407 1 1 0 34.439988534870686 0.2603249527634362 50 0 0 0
408 1 1 0 35.66999491312972 0.9120309511238556 50 0 0 0
409 1 1 0 33.20997868451142 2.318505748679704 50 0 0 0
410 1 1 0 34.439989897538545 3.0057648301381423 50 0 0 0
411 1 1 0 31.979957643833206 4.411129107807729 50 0 0 0
412 1 1 0 33.20997854668753 5.101192542131899 50 0 0 0
413 1 1 0 30.749919638280776 6.508419082398144 50 0 0 0
414 1 1 0 31.979956968646903 7.201273415390696 50 0 0 0
468 1 1 0 35.66999535352319 2.3185019195920846 50 0 0 0
470 1 1 0 34.439989680893206 4.411123704337342 50 0 0 0
471 1 1 0 35.66999536485724 5.1011944004412895 50 0 0 0
472 1 1 0 33.20997818758969 6.5084109392327845 50 0 0 0
473 1 1 0 34.43998964627006 7.201277243273984 50 0 0 0
535 1 1 0 35.66999539396033 6.5084085765625845 50 0 0 0
28082 1 2 0 22.138229360162143 -0.8308130554730946 50 0 0 0
28085 1 2 0 24.599137480930512 -0.8311271997225539 50 0 0 0
28088 1 2 0 27.059648436187235 -0.8312992709936264 50 0 0 0
28091 1 2 0 29.5198831887953 -0.8313799074394382 50 0 0 0
28094 1 2 0 31.97996894462873 -0.8314103227141044 50 0 0 0
28097 1 2 0 34.43999347541959 -0.8314192470015392 50 0 0 0
466 1 1 0 36.899997726910726 0.260322194497237 50 0 0 0
467 1 1 0 38.129999101749505 0.9120310014679244 50 0 0 0
469 1 1 0 36.89999804328322 3.005765602969635 50 0 0 0
529 1 1 0 39.35999964610976 0.2603216648449126 50 0 0 0
530 1 1 0 40.58999987681538 0.9120310342766872 50 0 0 0
531 1 1 0 38.12999920833802 2.318501075657658 50 0 0 0
532 1 1 0 39.359999706984375 3.005765829955645 50 0 0 0
533 1 1 0 36.89999804519424 4.41112235352739 50 0 0 0
534 1 1 0 38.1299992290122 5.101194972829163 50 0 0 0
536 1 1 0 36.89999807901476 7.201278532138755 50 0 0 0
596 1 1 0 41.81999995788037 0.26032158766742935 50 0 0 0
597 1 1 0 43.04999998736034 0.9120310417030189 50 0 0 0
598 1 1 0 40.58999989711884 2.3185009338437164 50 0 0 0
599 1 1 0 41.81999996710833 3.005765874480685 50 0 0 0
600 1 1 0 39.35999971784645 4.411122096019893 50 0 0 0
601 1 1 0 40.589999903460885 5.101195092144698 50 0 0 0
602 1 1 0 38.12999925580461 6.508408049144311 50 0 0 0
603 1 1 0 39.359999729613286 7.201278827366764 50 0 0 0
667 1 1 0 44.27999999637154 0.2603215794121997 50 0 0 0
668 1 1 0 45.50999999910811 0.912031042704291 50 0 0 0
669 1 1 0 43.0499999902208 2.318500916065334 50 0 0 0
670 1 1 0 44.279999997395805 3.0057658804837333 50 0 0 0
671 1 1 0 41.819999969818774 4.411122059069354 50 0 0 0
672 1 1 0 43.04999999125214 5.101195109391216 50 0 0 0
673 1 1 0 40.589999909683094 6.508407959564206 50 0 0 0
674 1 1 0 41.81999997185498 7.20127887464625 50 0 0 0
742 1 1 0 46.73999999980498 0.26032157881545376 50 0 0 0
743 1 1 0 47.969999999968444 0.9120310427872709 50 0 0 0
744 1 1 0 45.5099999993857 2.3185009144717874 50 0 0 0
745 1 1 0 46.739999999880304 3.005765881027421 50 0 0 0
746 1 1 0 44.27999999775438 4.411122055167318 50 0 0 0
747 1 1 0 45.509999999487995 5.101195111100913 50 0 0 0
748 1 1 0 43.049999992087464 6.508407948190994 50 0 0 0
749 1 1 0 44.27999999797474 7.201278879946633 50 0 0 0
821 1 1 0 49.19999999999814 0.26032157879467355 50 0 0 0
823 1 1 0 47.969999999984815 2.3185009143823554 50 0 0 0
824 1 1 0 49.20000000000087 3.0057658810562833 50 0 0 0
825 1 1 0 46.73999999990892 4.411122054884838 50 0 0 0
826 1 1 0 47.9699999999908 5.10119511120703 50 0 0 0
827 1 1 0 45.50999999955935 6.508407947158542 50 0 0 0
828 1 1 0 46.739999999923896 7.201278880341417 50 0 0 0
908 1 1 0 49.200000000002056 4.411122054874615 50 0 0 0
910 1 1 0 47.969999999994286 6.508407947100206 50 0 0 0
911 1 1 0 49.200000000002504 7.201278880356092 50 0 0 0
28100 1 2 0 36.89999892949515 -0.8314212487858965 50 0 0 0
28103 1 2 0 39.35999986541019 -0.831421587073548 50 0 0 0
28106 1 2 0 41.81999998753298 -0.8314216290411123 50 0 0 0
28109 1 2 0 44.27999999923291 -0.831421632637959 50 0 0 0
28112 1 2 0 46.739999999981634 -0.8314216328122093 50 0 0 0
28115 1 2 0 49.200000000001886 -0.831421632810681 50 0 0 0
822 1 1 0 50.43000000000124 0.9120310427906778 50 0 0 0
904 1 1 0 51.66000000000074 0.260321578795667 50 0 0 0
905 1 1 0 52.89000000000026 0.9120310427905949 50 0 0 0
906 1 1 0 50.43000000000151 2.3185009143813358 50 0 0 0
907 1 1 0 51.66000000000066 3.005765881056427 50 0 0 0
909 1 1 0 50.43000000000162 5.101195111209159 50 0 0 0
991 1 1 0 54.12000000000008 0.2603215787958584 50 0 0 0
992 1 1 0 55.35000000000002 0.9120310427905717 50 0 0 0
993 1 1 0 52.89000000000022 2.3185009143816915 50 0 0 0
994 1 1 0 54.12000000000006 3.005765881056305 50 0 0 0
995 1 1 0 51.66000000000064 4.411122054875057 50 0 0 0
996 1 1 0 52.89000000000019 5.1011951112088445 50 0 0 0
997 1 1 0 50.43000000000161 6.508407947099584 50 0 0 0
998 1 1 0 51.66000000000061 7.201278880355535 50 0 0 0
1082 1 1 0 56.58000000000001 0.26032157879587187 50 0 0 0
1083 1 1 0 57.81 0.9120310427905701 50 0 0 0
1084 1 1 0 55.350000000000016 2.31850091438173 50 0 0 0
1085 1 1 0 56.580000000000005 3.0057658810562926 50 0 0 0
1086 1 1 0 54.120000000000054 4.4111220548751495 50 0 0 0
1087 1 1 0 55.350000000000016 5.101195111208803 50 0 0 0
1088 1 1 0 52.89000000000018 6.50840794709982 50 0 0 0
1089 1 1 0 54.12000000000005 7.2012788803554155 50 0 0 0
1177 1 1 0 59.04 0.2603215787958674 50 0 0 0
1178 1 1 0 60.27 0.9120310427905681 50 0 0 0
1179 1 1 0 57.81000000000001 2.3185009143817283 50 0 0 0
1180 1 1 0 59.040000000000006 3.005765881056293 50 0 0 0
1181 1 1 0 56.580000000000005 4.411122054875155 50 0 0 0
1182 1 1 0 57.81000000000001 5.101195111208801 50 0 0 0
1183 1 1 0 55.350000000000016 6.508407947099846 50 0 0 0
1184 1 1 0 56.580000000000005 7.201278880355405 50 0 0 0
1276 1 1 0 61.5 0.2603215787958654 50 0 0 0
1277 1 1 0 62.730000000000004 0.9120310427905651 50 0 0 0
1278 1 1 0 60.27000000000001 2.318500914381726 50 0 0 0
1279 1 1 0 61.50000000000001 3.0057658810562935 50 0 0 0
1280 1 1 0 59.040000000000006 4.4111220548751575 50 0 0 0
1281 1 1 0 60.27 5.101195111208803 50 0 0 0
1282 1 1 0 57.81 6.508407947099843 50 0 0 0
1283 1 1 0 59.04 7.201278880355403 50 0 0 0
1379 1 1 0 63.96 0.26032157879586515 50 0 0 0
1381 1 1 0 62.730000000000004 2.318500914381724 50 0 0 0
1382 1 1 0 63.96 3.005765881056292 50 0 0 0
1383 1 1 0 61.5 4.411122054875157 50 0 0 0
1384 1 1 0 62.73 5.101195111208802 50 0 0 0
1385 1 1 0 60.27 6.508407947099847 50 0 0 0
1386 1 1 0 61.5 7.201278880355409 50 0 0 0
1490 1 1 0 63.959999999999994 4.411122054875159 50 0 0 0
1492 1 1 0 62.73 6.5084079470998475 50 0 0 0
1493 1 1 0 63.96 7.201278880355407 50 0 0 0
28118 1 2 0 51.66000000000027 -0.8314216328096544 50 0 0 0
28121 1 2 0 54.120000000000026 -0.831421632809568 50 0 0 0
28124 1 2 0 56.58 -0.8314216328095658 50 0 0 0
28127 1 2 0 59.04 -0.8314216328095699 50 0 0 0
28130 1 2 0 61.5 -0.8314216328095727 50 0 0 0
28133 1 2 0 63.959999999999994 -0.8314216328095734 50 0 0 0
1380 1 1 0 65.19 0.9120310427905673 50 0 0 0
1486 1 1 0 66.42 0.2603215787958669 50 0 0 0
1487 1 1 0 67.64999999999999 0.9120310427905706 50 0 0 0
1488 1 1 0 65.19 2.3185009143817195 50 0 0 0
1489 1 1 0 66.41999999999999 3.0057658810562935 50 0 0 0
1491 1 1 0 65.19 5.101195111208804 50 0 0 0
1597 1 1 0 68.88 0.26032157879586776 50 0 0 0
1598 1 1 0 70.11000000000001 0.912031042790569 50 0 0 0
1599 1 1 0 67.64999999999999 2.3185009143817337 50 0 0 0
1600 1 1 0 68.88 3.0057658810562926 50 0 0 0
1601 1 1 0 66.41999999999999 4.411122054875157 50 0 0 0
1602 1 1 0 67.64999999999999 5.1011951112088 50 0 0 0
1603 1 1 0 65.19 6.508407947099847 50 0 0 0
1604 1 1 0 66.42 7.201278880355406 50 0 0 0
1712 1 1 0 71.34 0.2603215787958771 50 0 0 0
1713 1 1 0 72.57000000000001 0.9120310427905688 50 0 0 0
1714 1 1 0 70.11 2.318500914381733 50 0 0 0
1715 1 1 0 71.34 3.005765881056289 50 0 0 0
1716 1 1 0 68.88 4.4111220548751575 50 0 0 0
1717 1 1 0 70.11 5.101195111208799 50 0 0 0
1718 1 1 0 67.65 6.508407947099846 50 0 0 0
1719 1 1 0 68.88000000000001 7.201278880355406 50 0 0 0
1831 1 1 0 73.80000000000001 0.2603215787958689 50 0 0 0
1832 1 1 0 75.03 0.9120310427905747 50 0 0 0
1833 1 1 0 72.57000000000001 2.318500914381729 50 0 0 0
1834 1 1 0 73.8 3.0057658810562953 50 0 0 0
1835 1 1 0 71.34 4.411122054875152 50 0 0 0
1836 1 1 0 72.57000000000001 5.101195111208799 50 0 0 0
1837 1 1 0 70.11 6.508407947099843 50 0 0 0
1838 1 1 0 71.34 7.201278880355403 50 0 0 0
1954 1 1 0 76.26 0.26032157879587137 50 0 0 0
1955 1 1 0 77.49 0.9120310427905732 50 0 0 0
1956 1 1 0 75.03 2.3185009143817323 50 0 0 0
1957 1 1 0 76.26 3.0057658810562984 50 0 0 0
1958 1 1 0 73.80000000000001 4.411122054875156 50 0 0 0
1959 1 1 0 75.03 5.101195111208806 50 0 0 0
1960 1 1 0 72.57000000000001 6.508407947099843 50 0 0 0
1961 1 1 0 73.80000000000001 7.2012788803554075 50 0 0 0
2081 1 1 0 78.72 0.26032157879587375 50 0 0 0
2083 1 1 0 77.49 2.318500914381728 50 0 0 0
2084 1 1 0 78.72 3.0057658810562877 50 0 0 0
2085 1 1 0 76.26 4.411122054875164 50 0 0 0
2086 1 1 0 77.49000000000001 5.1011951112088045 50 0 0 0
2087 1 1 0 75.03 6.508407947099849 50 0 0 0
2088 1 1 0 76.26 7.201278880355407 50 0 0 0
2216 1 1 0 78.72 4.411122054875154 50 0 0 0
2218 1 1 0 77.49000000000001 6.508407947099846 50 0 0 0
2219 1 1 0 78.72 7.2012788803554075 50 0 0 0
28136 1 2 0 66.42 -0.8314216328095708 50 0 0 0
28139 1 2 0 68.88 -0.8314216328095703 50 0 0 0
28142 1 2 0 71.34 -0.83142163280956 50 0 0 0
28145 1 2 0 73.80000000000003 -0.8314216328095678 50 0 0 0
28148 1 2 0 76.26 -0.831421632809567 50 0 0 0
28151 1 2 0 78.71999999999998 -0.8314216328095655 50 0 0 0
2082 1 1 0 79.95 0.9120310427905659 50 0 0 0
2212 1 1 0 81.18 0.2603215787958662 50 0 0 0
2213 1 1 0 82.41 0.9120310427905685 50 0 0 0
2214 1 1 0 79.95 2.318500914381725 50 0 0 0
2215 1 1 0 81.17999999999999 3.005765881056295 50 0 0 0
2217 1 1 0 79.95 5.101195111208803 50 0 0 0
2347 1 1 0 83.64 0.26032157879587026 50 0 0 0
2348 1 1 0 84.86999999999999 0.9120310427905723 50 0 0 0
2349 1 1 0 82.41 2.318500914381732 50 0 0 0
2350 1 1 0 83.64 3.0057658810562917 50 0 0 0
2351 1 1 0 81.17999999999999 4.411122054875156 50 0 0 0
2352 1 1 0 82.41 5.101195111208799 50 0 0 0
2353 1 1 0 79.95 6.508407947099849 50 0 0 0
2354 1 1 0 81.18 7.201278880355407 50 0 0 0
2486 1 1 0 86.1 0.26032157879587425 50 0 0 0
2487 1 1 0 87.33 0.9120310427905739 50 0 0 0
2488 1 1 0 84.87 2.3185009143817292 50 0 0 0
2489 1 1 0 86.10000000000001 3.005765881056296 50 0 0 0
2490 1 1 0 83.64 4.411122054875157 50 0 0 0
2491 1 1 0 84.87 5.101195111208801 50 0 0 0
2492 1 1 0 82.41 6.508407947099843 50 0 0 0
2493 1 1 0 83.64 7.201278880355403 50 0 0 0
2629 1 1 0 88.55999999999999 0.2603215787958702 50 0 0 0
2630 1 1 0 89.78999999999999 0.912031042790573 50 0 0 0
2631 1 1 0 87.33 2.3185009143817332 50 0 0 0
2632 1 1 0 88.56 3.005765881056297 50 0 0 0
2633 1 1 0 86.1 4.411122054875155 50 0 0 0
2634 1 1 0 87.33 5.1011951112088045 50 0 0 0
2635 1 1 0 84.87 6.508407947099843 50 0 0 0
2636 1 1 0 86.1 7.201278880355408 50 0 0 0
2776 1 1 0 91.01999999999998 0.2603215787958757 50 0 0 0
2777 1 1 0 92.25 0.9120310427905718 50 0 0 0
2778 1 1 0 89.78999999999999 2.3185009143817332 50 0 0 0
2779 1 1 0 91.02 3.005765881056293 50 0 0 0
2780 1 1 0 88.56 4.411122054875161 50 0 0 0
2781 1 1 0 89.79 5.1011951112088045 50 0 0 0
2782 1 1 0 87.33 6.508407947099848 50 0 0 0
2783 1 1 0 88.56 7.201278880355407 50 0 0 0
2929 1 1 0 92.25 2.3185009143817346 50 0 0 0
2931 1 1 0 91.02000000000001 4.4111220548751575 50 0 0 0
2932 1 1 0 92.25000000000001 5.101195111208799 50 0 0 0
2933 1 1 0 89.79 6.508407947099848 50 0 0 0
2934 1 1 0 91.02000000000001 7.201278880355402 50 0 0 0
3088 1 1 0 92.25000000000001 6.508407947099843 50 0 0 0
28154 1 2 0 81.18 -0.831421632809571 50 0 0 0
28157 1 2 0 83.64000000000001 -0.8314216328095655 50 0 0 0
28160 1 2 0 86.10000000000001 -0.8314216328095659 50 0 0 0
28163 1 2 0 88.55999999999999 -0.8314216328095669 50 0 0 0
28166 1 2 0 91.01999999999998 -0.8314216328095619 50 0 0 0
2927 1 1 0 93.47999999999999 0.26032157879587126 50 0 0 0
2928 1 1 0 94.71 0.9120310427905648 50 0 0 0
2930 1 1 0 93.48 3.0057658810562917 50 0 0 0
3082 1 1 0 95.94 0.26032157879586415 50 0 0 0
3083 1 1 0 97.17 0.9120310427905671 50 0 0 0
3084 1 1 0 94.71 2.3185009143817226 50 0 0 0
3085 1 1 0 95.94 3.0057658810562917 50 0 0 0
3086 1 1 0 93.48 4.411122054875153 50 0 0 0
3087 1 1 0 94.71000000000001 5.101195111208807 50 0 0 0
3089 1 1 0 93.48 7.201278880355411 50 0 0 0
3241 1 1 0 98.39999999999999 0.26032157879586765 50 0 0 0
3242 1 1 0 99.63 0.9120310427905686 50 0 0 0
3243 1 1 0 97.17 2.3185009143817275 50 0 0 0
3244 1 1 0 98.4 3.005765881056292 50 0 0 0
3245 1 1 0 95.94 4.411122054875156 50 0 0 0
3246 1 1 0 97.17 5.101195111208799 50 0 0 0
3247 1 1 0 94.71000000000001 6.508407947099848 50 0 0 0
3248 1 1 0 95.94 7.201278880355407 50 0 0 0
3404 1 1 0 100.85999999999999 0.26032157879586304 50 0 0 0
3405 1 1 0 102.08999999999999 0.9120310427905622 50 0 0 0
3406 1 1 0 99.63 2.3185009143817257 50 0 0 0
3407 1 1 0 100.86 3.0057658810562917 50 0 0 0
3408 1 1 0 98.4 4.411122054875155 50 0 0 0
3409 1 1 0 99.63 5.101195111208801 50 0 0 0
3410 1 1 0 97.17 6.508407947099847 50 0 0 0
3411 1 1 0 98.4 7.201278880355404 50 0 0 0
3573 1 1 0 102.08999999999999 2.318500914381722 50 0 0 0
3575 1 1 0 100.86 4.411122054875158 50 0 0 0
3576 1 1 0 102.09 5.101195111208801 50 0 0 0
3577 1 1 0 99.63000000000001 6.508407947099844 50 0 0 0
3578 1 1 0 100.86 7.201278880355407 50 0 0 0
3748 1 1 0 102.09 6.508407947099843 50 0 0 0
28169 1 2 0 93.47999999999998 -0.8314216328095632 50 0 0 0
28172 1 2 0 95.93999999999998 -0.8314216328095763 50 0 0 0
28175 1 2 0 98.39999999999999 -0.8314216328095706 50 0 0 0
28178 1 2 0 100.85999999999999 -0.8314216328095759 50 0 0 0
19 1 1 0 0 8.52169 50 0 0 0
20 1 1 0 1.2017096134453957 9.24938477634563 50 0 0 0
21 1 1 0 0 11.362253 50 0 0 0
30 1 1 0 2.4350778645775875 8.55375564574818 50 0 0 0
31 1 1 0 3.659999291758463 9.270047092860125 50 0 0 0
32 1 1 0 1.2100429035651525 10.66030604996214 50 0 0 0
33 1 1 0 2.434042123820555 11.381309525128774 50 0 0 0
34 1 1 0 0 12.782535 50 0 0 0
35 1 1 0 1.205950427591875 13.503009414907282 50 0 0 0
36 1 1 0 0 15.623098 50 0 0 0
45 1 1 0 4.893496799535383 8.578367189683316 50 0 0 0
46 1 1 0 6.122349331076655 9.285966925313863 50 0 0 0
47 1 1 0 3.6665993102971712 10.685133980235872 50 0 0 0
48 1 1 0 4.894344241066852 11.395642478677876 50 0 0 0
49 1 1 0 2.438430976376695 12.800018191738966 50 0 0 0
50 1 1 0 3.666819619792305 13.511329321411777 50 0 0 0
51 1 1 0 1.210483729868888 14.915607438587939 50 0 0 0
52 1 1 0 2.4387337566525273 15.631093948446555 50 0 0 0
53 1 1 0 0 17.04338 50 0 0 0
54 1 1 0 1.2089812299169824 17.759357118561365 50 0 0 0
55 1 1 0 0 19.883943 50 0 0 0
64 1 1 0 7.356718399671863 8.595494191910147 50 0 0 0
66 1 1 0 6.127206702676174 10.699845544895465 50 0 0 0
67 1 1 0 7.357891990199809 11.404153526141501 50 0 0 0
68 1 1 0 4.898916571877056 12.811434065858492 50 0 0 0
69 1 1 0 6.129097472710944 13.518328831251035 50 0 0 0
70 1 1 0 3.6708351531282513 14.928753865698935 50 0 0 0
71 1 1 0 4.900637162226515 15.637501624999597 50 0 0 0
72 1 1 0 2.441102940365682 17.05159670578526 50 0 0 0
73 1 1 0 3.6716785047679337 17.760615975342333 50 0 0 0
74 1 1 0 1.2109407569798618 19.173194061423285 50 0 0 0
75 1 1 0 2.4416368095205443 19.885910954159964 50 0 0 0
76 1 1 0 0 21.304225 50 0 0 0
91 1 1 0 7.361511077115055 12.819100465865379 50 0 0 0
93 1 1 0 6.132508227458592 14.935010170044436 50 0 0 0
94 1 1 0 7.363588551209427 15.640850455144596 50 0 0 0
95 1 1 0 4.903203379043489 17.055568415944187 50 0 0 0
96 1 1 0 6.134134297096057 17.763081143912096 50 0 0 0
97 1 1 0 3.6735393434931347 19.17977654633346 50 0 0 0
98 1 1 0 4.904329467833365 19.888458663023325 50 0 0 0
99 1 1 0 2.442591981960753 21.30758739852585 50 0 0 0
122 1 1 0 7.365772144056022 17.05844000985393 50 0 0 0
124 1 1 0 6.135756201869599 19.18186297036194 50 0 0 0
125 1 1 0 7.366916728587455 19.8895190877948 50 0 0 0
126 1 1 0 4.905343328738105 21.308081599691615 50 0 0 0
157 1 1 0 7.367759398185729 21.308927383068344 50 0 0 0
28062 1 2 0 -0.943968 9.06669 50 0 0 0
28063 1 2 0 -0.943968 10.817253 50 0 0 0
28065 1 2 0 -0.943968 13.327535 50 0 0 0
28066 1 2 0 -0.943968 15.078098 50 0 0 0
28068 1 2 0 -0.943968 17.58838 50 0 0 0
28069 1 2 0 -0.943968 19.338943 50 0 0 0
65 1 1 0 8.5881685776473 9.296105727466777 50 0 0 0
87 1 1 0 9.822336464474933 8.605136391335932 50 0 0 0
88 1 1 0 11.054537985907992 9.30190149402807 50 0 0 0
89 1 1 0 8.591120842973702 10.70894247714807 50 0 0 0
90 1 1 0 9.823016498824535 11.409468018038273 50 0 0 0
92 1 1 0 8.592953783981255 13.522660877333465 50 0 0 0
114 1 1 0 12.287796423958353 8.609512555747514 50 0 0 0
115 1 1 0 13.519828678427949 9.304667423755697 50 0 0 0
116 1 1 0 11.056031569942876 10.714009021810547 50 0 0 0
117 1 1 0 12.288059012043922 11.412598768454611 50 0 0 0
118 1 1 0 9.82540827045484 12.823726997293774 50 0 0 0
119 1 1 0 11.057192636137938 13.5254522770623 50 0 0 0
120 1 1 0 8.59553620025234 14.938751461420495 50 0 0 0
121 1 1 0 9.827022080593144 15.64303749347387 50 0 0 0
123 1 1 0 8.597046961081265 17.764678603860887 50 0 0 0
145 1 1 0 14.75204392192807 8.61088026602491 50 0 0 0
146 1 1 0 15.983608411177654 9.305685864953096 50 0 0 0
147 1 1 0 13.520440135288192 10.716364523497273 50 0 0 0
148 1 1 0 14.752131624761489 11.414207613155352 50 0 0 0
149 1 1 0 12.289387504341292 12.826369699484701 50 0 0 0
150 1 1 0 13.521024077391818 13.52718462982864 50 0 0 0
151 1 1 0 11.058886764733218 14.941091176913007 50 0 0 0
152 1 1 0 12.29035705056946 15.644530906582807 50 0 0 0
153 1 1 0 9.82863086306366 17.060247540178167 50 0 0 0
154 1 1 0 11.05993352611381 17.765803017100453 50 0 0 0
155 1 1 0 8.598308617849492 19.183142231912036 50 0 0 0
156 1 1 0 9.829499549853752 19.890286169748965 50 0 0 0
180 1 1 0 17.21502134977271 8.610995902425083 50 0 0 0
181 1 1 0 18.446122106722225 9.305948468562292 50 0 0 0
182 1 1 0 15.98380459580658 10.717177265765349 50 0 0 0
183 1 1 0 17.215060830521356 11.414893951726812 50 0 0 0
184 1 1 0 14.752757139776868 12.827672633667774 50 0 0 0
185 1 1 0 15.984069234733889 13.528131460737193 50 0 0 0
186 1 1 0 13.521976482372924 14.942490047625618 50 0 0 0
187 1 1 0 14.753248182111628 15.64548696462701 50 0 0 0
188 1 1 0 12.291381795550596 17.061440358349362 50 0 0 0
189 1 1 0 13.52257194996665 17.766590064025905 50 0 0 0
190 1 1 0 11.060804952679725 19.184020158303078 50 0 0 0
191 1 1 0 12.291927997284954 19.890846750594566 50 0 0 0
192 1 1 0 9.83011706600445 21.309502490404377 50 0 0 0
219 1 1 0 19.67702164023851 8.610811562162262 50 0 0 0
220 1 1 0 20.907757871404783 9.30598969196037 50 0 0 0
221 1 1 0 18.44617038791959 10.717322467233231 50 0 0 0
222 1 1 0 19.677045360256813 11.415141590187032 50 0 0 0
223 1 1 0 17.21531774890487 12.828172799909659 50 0 0 0
224 1 1 0 18.446289180522907 13.528572733736748 50 0 0 0
225 1 1 0 15.98453114699215 14.943205822748372 50 0 0 0
226 1 1 0 17.215543424929507 15.646020363425786 50 0 0 0
227 1 1 0 14.753810842234197 17.06216363876448 50 0 0 0
228 1 1 0 15.98482467109723 17.767089183745064 50 0 0 0
229 1 1 0 13.52309982707662 19.184604149151717 50 0 0 0
230 1 1 0 14.754105112418673 19.891231340520317 50 0 0 0
231 1 1 0 12.292331536617146 21.309901883260544 50 0 0 0
264 1 1 0 20.907766733419297 10.717274547145111 50 0 0 0
266 1 1 0 19.677142188297008 12.82829644919874 50 0 0 0
267 1 1 0 20.9078205711176 13.52875692277526 50 0 0 0
268 1 1 0 18.446486503853258 14.943488122183103 50 0 0 0
269 1 1 0 19.67724107567677 15.646277598983547 50 0 0 0
270 1 1 0 17.21581015168783 17.06252162065662 50 0 0 0
271 1 1 0 18.446617809220882 17.76736459149916 50 0 0 0
272 1 1 0 15.985101547039234 19.184938195320438 50 0 0 0
273 1 1 0 17.21594987424207 19.891470067272078 50 0 0 0
274 1 1 0 14.754336742195841 21.310149063955876 50 0 0 0
315 1 1 0 20.907897083089956 14.943556936698144 50 0 0 0
317 1 1 0 19.677352132768057 17.06264931398589 50 0 0 0
318 1 1 0 20.907952716464074 17.767501707949556 50 0 0 0
319 1 1 0 18.446742931697283 19.185082074439517 50 0 0 0
320 1 1 0 19.677412489922276 19.891603152980878 50 0 0 0
321 1 1 0 17.216063711197005 21.310268275819965 50 0 0 0
370 1 1 0 20.908002074118865 19.18511413660465 50 0 0 0
372 1 1 0 19.67746033546582 21.310300246150746 50 0 0 0
262 1 1 0 22.138332130011165 8.610647905403876 50 0 0 0
263 1 1 0 23.368798550096972 9.305999358571158 50 0 0 0
265 1 1 0 22.138345074719105 11.415230076345233 50 0 0 0
309 1 1 0 24.59915018325734 8.610549390792269 50 0 0 0
310 1 1 0 25.829423346705926 9.306012830449992 50 0 0 0
311 1 1 0 23.368799327236687 10.717206360914822 50 0 0 0
312 1 1 0 24.599155766183504 11.415271869749537 50 0 0 0
313 1 1 0 22.13838008600532 12.828289126703822 50 0 0 0
314 1 1 0 23.368822358167794 13.528836526036939 50 0 0 0
316 1 1 0 22.13842187029085 15.646393959494779 50 0 0 0
360 1 1 0 27.059620118504316 8.610495752890904 50 0 0 0
361 1 1 0 28.289762394468607 9.30602834132202 50 0 0 0
362 1 1 0 25.829423383049857 10.71715737368752 50 0 0 0
363 1 1 0 27.059622936982343 11.415299251826069 50 0 0 0
364 1 1 0 24.59916845446145 12.828255312994214 50 0 0 0
365 1 1 0 25.829433164577406 13.528878474795146 50 0 0 0
366 1 1 0 23.368850374024202 14.943547062043375 50 0 0 0
367 1 1 0 24.599185770014373 15.646450839700352 50 0 0 0
368 1 1 0 22.13846364659476 17.062664994754645 50 0 0 0
369 1 1 0 23.36887347485661 17.767570442075495 50 0 0 0
371 1 1 0 22.138488766086827 19.89167657711253 50 0 0 0
415 1 1 0 29.519857686984736 8.61046891329675 50 0 0 0
416 1 1 0 30.749919710048072 9.306041091721601 50 0 0 0
417 1 1 0 28.28976370074162 10.717128362980255 50 0 0 0
418 1 1 0 29.51985970092009 11.415319096484078 50 0 0 0
419 1 1 0 27.059628974706143 12.828227292054207 50 0 0 0
420 1 1 0 28.28976852571439 13.528905983259133 50 0 0 0
421 1 1 0 25.82944463467925 14.943522504719711 50 0 0 0
422 1 1 0 27.059636832398116 15.646485349607781 50 0 0 0
423 1 1 0 24.599201876599416 17.06264500127144 50 0 0 0
424 1 1 0 25.82945486816394 17.76761056263922 50 0 0 0
425 1 1 0 23.368891948539236 19.185098150282396 50 0 0 0
426 1 1 0 24.59921290382009 19.891720713035138 50 0 0 0
427 1 1 0 22.13850665173833 21.310285887260495 50 0 0 0
474 1 1 0 31.97995716868441 8.610457528860346 50 0 0 0
475 1 1 0 33.20997853766903 9.306048155218415 50 0 0 0
476 1 1 0 30.749921244250892 10.717113862671356 50 0 0 0
477 1 1 0 31.979958319804673 11.415330719831546 50 0 0 0
478 1 1 0 29.51986323016912 12.828210046667555 50 0 0 0
479 1 1 0 30.749923554812945 13.528923048383648 50 0 0 0
480 1 1 0 28.289774273415357 14.943502755531561 50 0 0 0
481 1 1 0 29.519866866843305 15.646507908013499 50 0 0 0
482 1 1 0 27.059644352626005 17.062622718475186 50 0 0 0
483 1 1 0 28.289779062771277 17.767637826140216 50 0 0 0
484 1 1 0 25.829463018791706 19.185073179322753 50 0 0 0
485 1 1 0 27.05964966825067 19.89175156174485 50 0 0 0
486 1 1 0 24.599220301939454 21.310258201670468 50 0 0 0
537 1 1 0 34.43998993030008 8.610453671725118 50 0 0 0
538 1 1 0 35.669995558897774 9.306050773450854 50 0 0 0
539 1 1 0 33.20997935274945 10.717107999620266 50 0 0 0
540 1 1 0 34.43999036041003 11.41533550833009 50 0 0 0
541 1 1 0 31.979959953757838 12.828201561993593 50 0 0 0
542 1 1 0 33.209980197003325 13.528930963888884 50 0 0 0
543 1 1 0 30.749926188693514 14.943490910938428 50 0 0 0
544 1 1 0 31.97996133696001 15.646519810377248 50 0 0 0
545 1 1 0 29.51987042947834 17.062606774384978 50 0 0 0
546 1 1 0 30.749928142342217 17.767654215444253 50 0 0 0