LAMMPS data file via write_data, version 22 Jul 2025, timestep = 200000, units = metal

28558 atoms
2 atom types

-20.943968 226.353968 xlo xhi
-21.09 375.450275 ylo yhi
30 70 zlo zhi

Masses

1 12.011
2 1.008

Atoms # full

1 1 1 0 0 0 50 0 0 0
2 1 1 0 1.3827156354913799 0.8238258303572689 49.739345255137806 0 0 0
3 1 1 0 0 2.840563 50 0 0 0
4 1 1 0 2.747764079596178 0.3458461160987645 49.29129164012066 0 0 0
5 1 1 0 4.047475897946024 1.1239627160504493 49.16325099792967 0 0 0
6 1 1 0 1.3583714487990257 2.243326425172547 49.95788898132101 0 0 0
7 1 1 0 2.6431806017691906 3.0246102316442833 49.834507293620945 0 0 0
8 1 1 0 0 4.260845 50 0 0 0
9 1 1 0 1.2579398289600543 5.040073453876732 50.1358007777539 0 0 0
10 1 1 0 0 7.101408 50 0 0 0
11 1 1 0 5.427852107708347 0.6636566958417831 48.726535843537754 0 0 0
12 1 1 0 6.661951462944005 1.4111845372640857 48.80142144251744 0 0 0
13 1 1 0 3.999835725776124 2.488439208077247 49.56754347236545 0 0 0
14 1 1 0 5.296938490652099 3.287152515372621 49.56086683065349 0 0 0
15 1 1 0 2.5798658766917626 4.451347006203421 49.92958373739639 0 0 0
16 1 1 0 3.8402453785142536 5.192446465879807 49.97191331004882 0 0 0
17 1 1 0 1.2571212434319428 6.51314056949892 50.02151626815425 0 0 0
18 1 1 0 2.522774800409766 7.2082603674767824 50.13414323411132 0 0 0
24 1 1 0 6.6362708374652675 2.7496061396688356 49.31693457668471 0 0 0
26 1 1 0 5.194150697658738 4.655532806850276 49.82846740712901 0 0 0
27 1 1 0 6.4597102411791045 5.419173605233455 49.83973145807382 0 0 0
28 1 1 0 3.7905696958189794 6.603569673075154 50.107325006549914 0 0 0
43 1 1 0 6.4210458268439075 6.827339420010821 50.04529059700934 0 0 0
28057 1 2 0 -0.943968 2.295563 50 0 0 0
28058 1 2 0 2.8448732746077843 -0.6938237059707651 49.03558097894171 0 0 0
28059 1 2 0 -0.943968 4.805845 50 0 0 0
28060 1 2 0 -0.943968 6.556408 50 0 0 0
28061 1 2 0 5.399798994727238 -0.2903850926862296 48.306366989427445 0 0 0
28555 1 2 0 0 -1.09 50 0 0 0
28556 1 2 0 -0.943968 0.545 50 0 0 0
41 1 1 0 7.752698525862533 4.850993610758227 49.721830204990866 0 0 0
29 1 1 0 5.068072107072675 7.360681997624605 50.087028786569796 0 0 0
25 1 1 0 7.859541928955222 3.5206869572031203 49.37715378468872 0 0 0
22 1 1 0 8.001706434387156 0.9462858192288232 48.58454095195578 0 0 0
28064 1 2 0 8.087330883593093 -0.07717476416938299 48.208821076088405 0 0 0
23 1 1 0 9.2487865640855 1.6551098868847596 48.803311445516464 0 0 0
37 1 1 0 10.564358448236822 1.161575666383572 48.476857964980766 0 0 0
38 1 1 0 11.852530125129952 1.8883069079376802 48.57990451556059 0 0 0
39 1 1 0 9.179310293123192 2.9703799014838332 49.263503170592614 0 0 0
40 1 1 0 10.42708985336543 3.7265902200963374 49.37339770218624 0 0 0
42 1 1 0 9.076659716723201 5.617237790032069 49.80932489906193 0 0 0
56 1 1 0 13.140734549432436 1.484604131966724 48.195453682342574 0 0 0
57 1 1 0 14.368806761390292 2.104097454108144 48.62815634168122 0 0 0
58 1 1 0 11.706242648018675 3.193464567870397 49.10516061665234 0 0 0
59 1 1 0 12.935075829571847 3.9306570057245835 49.429834509091236 0 0 0
60 1 1 0 10.369045496007372 5.105805122657461 49.73425552997684 0 0 0
61 1 1 0 11.59748039160683 5.847317131283625 49.858510815332046 0 0 0
62 1 1 0 9.000618393927866 7.0174783954696025 50.01177618035599 0 0 0
79 1 1 0 15.66715313550847 1.5736556574109961 48.46172586568832 0 0 0
80 1 1 0 16.804755262256894 2.3658837406253164 48.53466193849407 0 0 0
81 1 1 0 14.240721369884552 3.429656093530549 49.14635778931569 0 0 0
82 1 1 0 15.41608880871076 4.227483800813829 49.33508438099645 0 0 0
83 1 1 0 12.90538995681045 5.301205264276578 49.742792539406956 0 0 0
84 1 1 0 14.056511386924175 6.102931788210823 49.979969798640894 0 0 0
106 1 1 0 18.057968657951495 1.8081998444038454 48.34405107772017 0 0 0
107 1 1 0 19.178674599187044 2.6224614641690467 48.28177152917476 0 0 0
108 1 1 0 16.672465813652195 3.6679797157412586 49.005906711481074 0 0 0
109 1 1 0 17.88789438334447 4.46708565933428 49.093801211790236 0 0 0
110 1 1 0 15.340989238394013 5.5483383240320725 49.78532312539782 0 0 0
111 1 1 0 16.557280887529924 6.311651181616866 49.899052448344065 0 0 0
137 1 1 0 20.363121303850868 2.173572730310921 47.76953951136739 0 0 0
139 1 1 0 19.157390529501534 3.9123992849463165 48.85923251870629 0 0 0
140 1 1 0 20.31641620047951 4.62181997932557 48.8838279359296 0 0 0
141 1 1 0 17.821746875631657 5.791811973739296 49.57028022099604 0 0 0
142 1 1 0 19.066160281944438 6.512437276999312 49.61173491352388 0 0 0
176 1 1 0 20.30074003013231 5.984849865629554 49.30106294540756 0 0 0
28067 1 2 0 10.692362579060834 0.16395273181285672 48.06760440977102 0 0 0
28070 1 2 0 13.268539239893851 0.5424421437448637 47.58692056617729 0 0 0
28073 1 2 0 15.756877605746652 0.5137909080569882 48.402320134278845 0 0 0
28076 1 2 0 18.18002272416993 0.7260869648719226 48.00037636319768 0 0 0
28079 1 2 0 20.330209058595297 1.2856858174969792 47.074898492872705 0 0 0
177 1 1 0 21.530216192910487 6.7285347594611675 49.364549602768655 0 0 0
85 1 1 0 11.492491968762746 7.26799707911666 49.967562279217155 0 0 0
174 1 1 0 21.594716030671535 4.078393952850266 48.537984087095424 0 0 0
112 1 1 0 13.991985472775228 7.4918065842605985 50.07304074787357 0 0 0
138 1 1 0 21.61209264963097 2.78490327280133 47.94248174441397 0 0 0
143 1 1 0 16.488686455790926 7.663769809334777 50.11563563634027 0 0 0
172 1 1 0 22.833112585668093 2.3059147228420667 47.48954519826101 0 0 0
173 1 1 0 24.056268152332066 3.0162156473282247 47.76464894311911 0 0 0
175 1 1 0 22.805096968469552 4.801279810357632 48.80536839055951 0 0 0
211 1 1 0 25.30381704820002 2.431206161957775 47.481585567011265 0 0 0
212 1 1 0 26.51729507179698 3.1044880150086858 47.50586339938522 0 0 0
213 1 1 0 24.08637352132597 4.2396190237476254 48.42244186774937 0 0 0
214 1 1 0 25.29420347068823 4.921570231551291 48.67483899684014 0 0 0
215 1 1 0 22.80007641259397 6.145105035506943 49.15796203724525 0 0 0
216 1 1 0 23.992172970838038 6.850249685589859 49.35660454592735 0 0 0
254 1 1 0 27.722752259715637 2.6171478233593786 47.01739096354995 0 0 0
255 1 1 0 28.949606259542108 3.254937078753555 47.3247761693305 0 0 0
256 1 1 0 26.499227830374394 4.3361004651186965 48.1732320149912 0 0 0
257 1 1 0 27.649563871752818 5.109169836633584 48.318641854156674 0 0 0
258 1 1 0 25.251498296823417 6.240431911034011 49.121136882361284 0 0 0
301 1 1 0 30.161252973985142 2.7660407219779195 46.87629815051896 0 0 0
302 1 1 0 31.411793979133893 3.4466841576021556 47.00131000327611 0 0 0
303 1 1 0 28.93242569663925 4.5561554720626924 47.92705986226483 0 0 0
304 1 1 0 30.128949928959514 5.271512339358242 48.024027430514025 0 0 0
305 1 1 0 27.628006805768162 6.468669573912369 48.76487925032002 0 0 0
352 1 1 0 32.66551794448101 3.018177931763967 46.524592031181 0 0 0
353 1 1 0 33.867629815833865 3.4691765692825385 47.09398472047756 0 0 0
354 1 1 0 31.383053428721237 4.703733996218168 47.71103316296586 0 0 0
355 1 1 0 32.61969507674005 5.330746921165203 48.07573654745613 0 0 0
356 1 1 0 30.100326727746047 6.603005749885157 48.45020052171919 0 0 0
407 1 1 0 35.11210836482889 2.834137958690589 47.08140727425338 0 0 0
409 1 1 0 33.81563402016768 4.695248814197254 47.79111859103114 0 0 0
410 1 1 0 34.995993639607555 5.351782731896563 48.19754201336189 0 0 0
28082 1 2 0 22.908267058002767 1.366679178842245 46.928491999266534 0 0 0
28085 1 2 0 25.358554868726856 1.3541853781727107 47.20649513714324 0 0 0
28088 1 2 0 27.685034464143133 1.689754036877876 46.45045859744647 0 0 0
28091 1 2 0 30.229343424803055 1.788551580545378 46.37769530927962 0 0 0
28094 1 2 0 32.67283596829863 2.544290449297323 45.50673761459955 0 0 0
28097 1 2 0 35.204962537340656 1.8265863111063385 46.68361135854931 0 0 0
411 1 1 0 32.55168051904955 6.635693413273562 48.534828391572034 0 0 0
259 1 1 0 26.454826919143148 6.969737432754141 49.22489542477593 0 0 0
470 1 1 0 35.03339209370062 6.69845084931201 48.62612067013198 0 0 0
306 1 1 0 28.886517138752208 7.1821183141133345 48.790844280297904 0 0 0
357 1 1 0 31.310082699484518 7.277266886610829 48.666321038527336 0 0 0
412 1 1 0 33.78103648047713 7.300732461443312 48.87317573732283 0 0 0
471 1 1 0 36.26912295748005 7.321014794004153 48.87545607918148 0 0 0
468 1 1 0 36.26544246427768 4.7204749209082015 48.08004810115024 0 0 0
408 1 1 0 36.32354177610064 3.3760158554805133 47.67440493740407 0 0 0
28103 1 2 0 39.837606402948396 1.531999552169222 48.841587995510295 0 0 0
28106 1 2 0 42.50100878224544 1.4298948444306387 49.089099931658005 0 0 0
28109 1 2 0 45.07353698095433 1.6556375165314048 48.56309789226692 0 0 0
466 1 1 0 37.536877012057744 2.6997435523559905 47.89988173709521 0 0 0
467 1 1 0 38.72940624965935 3.269750050801263 48.332873598272755 0 0 0
469 1 1 0 37.5171993263397 5.349355219797835 48.42476729846448 0 0 0
529 1 1 0 39.89810518238786 2.5909033620577464 48.620432841399705 0 0 0
530 1 1 0 41.152957136866846 3.1931261370507324 48.81179235748299 0 0 0
531 1 1 0 38.73707012702534 4.6532216432316 48.53847559317616 0 0 0
532 1 1 0 39.944774544486584 5.349104127745004 48.78864858437038 0 0 0
596 1 1 0 42.38173521720988 2.5354821005576405 49.06534576946977 0 0 0
597 1 1 0 43.64754112740092 3.2642158073665355 49.04547014199663 0 0 0
598 1 1 0 41.1662202387699 4.613435687234259 48.78556176829349 0 0 0
599 1 1 0 42.375075359830525 5.29732328070661 49.036880511985444 0 0 0
667 1 1 0 44.938967457643066 2.7131085985471572 48.906675426763904 0 0 0
668 1 1 0 46.13656374599353 3.4292515851633456 49.202088926111315 0 0 0
669 1 1 0 43.60948850169567 4.66027829516938 49.114835445211874 0 0 0
670 1 1 0 44.83003945851741 5.444686026813347 49.14265499697138 0 0 0
742 1 1 0 47.38376543864938 2.852155539574638 49.558337306657386 0 0 0
743 1 1 0 48.63978693313593 3.4795077175036124 49.45673405025609 0 0 0
744 1 1 0 46.12238622345745 4.811623737066529 49.22011624387303 0 0 0
823 1 1 0 48.59257403159262 4.8903424631518915 49.433139648105886 0 0 0
28100 1 2 0 37.446566945621015 1.608847457111659 47.951782230566344 0 0 0
28112 1 2 0 47.37008260121396 1.8619606693476642 50.03188632952234 0 0 0
821 1 1 0 49.88209704448382 2.8469294135810217 49.56061851291211 0 0 0
745 1 1 0 47.30777097287559 5.541888554334831 49.353816444524234 0 0 0
533 1 1 0 37.49441667746809 6.755022145372489 48.64487965901198 0 0 0
824 1 1 0 49.80519292769263 5.606711467910255 49.49579200370109 0 0 0
600 1 1 0 39.90426604156917 6.776852315166398 48.9922245659979 0 0 0
671 1 1 0 42.35247946701401 6.67243987276085 49.32779887255792 0 0 0
746 1 1 0 44.75666559141869 6.858343859907213 49.37265913538427 0 0 0
28115 1 2 0 49.93581303091597 1.7690194205831629 49.747662155583214 0 0 0
825 1 1 0 47.244080687152426 6.9173959794745885 49.38635392216263 0 0 0
908 1 1 0 49.7719020962685 6.992142858798988 49.579904423851886 0 0 0
534 1 1 0 38.66231318399525 7.418764561207739 48.953261993050916 0 0 0
601 1 1 0 41.096392658905806 7.373128450792045 49.34669486042516 0 0 0
822 1 1 0 51.099082605621575 3.554160086681075 49.398008804075815 0 0 0
28130 1 2 0 62.21031439036528 2.368494326287084 49.6718172414152 0 0 0
28124 1 2 0 57.338369163457145 2.0397105081482665 50.154667418581454 0 0 0
28127 1 2 0 59.93422739782008 2.413029787543978 50.75559514658347 0 0 0
28121 1 2 0 54.910682517004766 1.8853398272665987 49.649936759695215 0 0 0
904 1 1 0 52.334014479147186 2.9093811812017707 49.27182756216036 0 0 0
905 1 1 0 53.59941237277626 3.624150464911571 49.39343272474303 0 0 0
991 1 1 0 54.77534087436145 2.960485319067196 49.60919211155843 0 0 0
28118 1 2 0 52.424499230916126 1.8198570289191935 49.224494233392086 0 0 0
906 1 1 0 51.0163572109386 4.962478943159375 49.60832475476773 0 0 0
992 1 1 0 55.99190012252013 3.702770892060823 49.74533775358159 0 0 0
1082 1 1 0 57.22894131426627 3.1331240136307907 50.00270975857393 0 0 0
1177 1 1 0 59.769088922407285 3.372156369674719 50.257942515919204 0 0 0
1178 1 1 0 60.95911215446037 4.053193088501543 49.890784478987555 0 0 0
1276 1 1 0 62.20266752587375 3.455475315901885 49.605650769577586 0 0 0
1083 1 1 0 58.45653230207846 3.8605596610946002 50.09491093903796 0 0 0
993 1 1 0 53.5286357624924 5.034747559121239 49.57982721326022 0 0 0
1084 1 1 0 56.012179749571985 5.129386510109166 49.69515865014206 0 0 0
907 1 1 0 52.27952382806776 5.623648937909556 49.78041923472684 0 0 0
994 1 1 0 54.73393157904126 5.720677212518587 49.74196989203291 0 0 0
1277 1 1 0 63.36135658591049 4.1831775909476905 49.405139234507644 0 0 0
1179 1 1 0 58.38566465577311 5.2556810919734 49.9289694116001 0 0 0
1278 1 1 0 60.87660176919208 5.413416663388782 49.80417067171235 0 0 0
1381 1 1 0 63.309639797745064 5.570370388536186 49.48545477575655 0 0 0
1085 1 1 0 57.14248804601225 5.915682187429616 49.74450465182318 0 0 0
1180 1 1 0 59.60650826472769 5.99889519557869 49.85066388985001 0 0 0
1279 1 1 0 62.060426535580035 6.1635075206238765 49.66796402728697 0 0 0
1382 1 1 0 64.49559212348387 6.2878833222877635 49.23009849372553 0 0 0
995 1 1 0 52.19181221711121 7.030290471392367 49.842502160365214 0 0 0
1383 1 1 0 62.03144947066184 7.550187149651377 49.769804674264215 0 0 0
1086 1 1 0 54.69326672035661 7.100193901032651 49.83573764863619 0 0 0
1181 1 1 0 57.15896899896663 7.294756054736318 49.75382063760509 0 0 0
1280 1 1 0 59.56038822370046 7.41005261917282 49.741581364006635 0 0 0
1490 1 1 0 64.49813370653789 7.672042151332786 49.382786345532125 0 0 0
1379 1 1 0 64.61682645991618 3.627591594505345 49.13366928399096 0 0 0
28133 1 2 0 64.69174911497817 2.558852448522102 49.174947788273364 0 0 0
28136 1 2 0 67.09332221844234 2.6949298613847126 48.818550936461044 0 0 0
28139 1 2 0 69.47237557905015 2.860297557835703 47.83174211702419 0 0 0
28142 1 2 0 71.69253366306619 3.264628386989624 46.577767439629625 0 0 0
28145 1 2 0 74.33763398268063 3.224381272013968 46.644216917848816 0 0 0
28148 1 2 0 76.71678198505701 2.8882921722015955 47.53925941711958 0 0 0
1486 1 1 0 67.01681383957353 3.713088250214599 48.61877306469358 0 0 0
1597 1 1 0 69.40921266057299 3.913093694118988 47.9239379324456 0 0 0
1712 1 1 0 71.83168164576131 4.115060914853784 47.268288965597506 0 0 0
1598 1 1 0 70.61920232338197 4.649842750258842 47.75223344818999 0 0 0
1831 1 1 0 74.31468290439878 4.150044736058722 47.20403565040405 0 0 0
1954 1 1 0 76.70046291895135 3.9702458465943065 47.74759479420884 0 0 0
1713 1 1 0 73.05355223434803 4.734496931678437 47.42414317107294 0 0 0
1955 1 1 0 77.9580920256521 4.710037513486961 47.73127980773213 0 0 0
1832 1 1 0 75.50813785231337 4.631528538740098 47.744917613435405 0 0 0
1380 1 1 0 65.78694116909305 4.281314176923077 48.803300750238776 0 0 0
1487 1 1 0 68.16580472384805 4.418697487765434 48.31474029018655 0 0 0
1488 1 1 0 65.74267092096915 5.692023366263663 48.97132209334463 0 0 0
2083 1 1 0 77.91705372849015 6.0125642187198505 48.21623811190268 0 0 0
1599 1 1 0 68.17115986169694 5.834072936127767 48.61250223611683 0 0 0
1833 1 1 0 73.08877961234121 6.056490265389973 47.91583422366162 0 0 0
1956 1 1 0 75.53681275765504 6.030593902652964 48.06011198047341 0 0 0
1714 1 1 0 70.62298440442068 5.9755506656871 48.237003677486676 0 0 0
1957 1 1 0 76.72293940733726 6.702819517034259 48.36962383149917 0 0 0
1489 1 1 0 66.91324106902886 6.414190303576723 48.90927790446653 0 0 0
1715 1 1 0 71.84289370181801 6.630498622833653 48.28425057729606 0 0 0
1600 1 1 0 69.39994884358562 6.499486074259753 48.61752373370642 0 0 0
1834 1 1 0 74.30826631694859 6.679009579650287 48.20259300466117 0 0 0
2081 1 1 0 79.1683319156993 4.144114246209314 47.30430297829525 0 0 0
28151 1 2 0 79.12935618827524 3.4191366813109396 46.52609395849643 0 0 0
2084 1 1 0 79.1125057955613 6.71362120589584 48.389300682487274 0 0 0
28154 1 2 0 81.50605929164296 2.979089442332992 47.373004059979884 0 0 0
28163 1 2 0 88.40519921185498 3.0196211990339257 50.65037536841862 0 0 0
28166 1 2 0 91.11777677058765 2.978591585444338 50.72826036734022 0 0 0
2776 1 1 0 91.1716793867421 4.020229780416218 50.50874508823484 0 0 0
28160 1 2 0 86.41953986520028 2.8162099824075413 48.71546467100621 0 0 0
2486 1 1 0 86.40511022445938 3.9058778736372575 48.86351335572678 0 0 0
28157 1 2 0 84.04879386327612 2.976989950683137 47.716328311011125 0 0 0
2347 1 1 0 84.01194959016436 3.9422136765678064 48.07264353003457 0 0 0
2348 1 1 0 85.21913922031523 4.506914386662127 48.56916251246674 0 0 0
2212 1 1 0 81.56477542587842 4.02538394630799 47.598392387782354 0 0 0
2213 1 1 0 82.75431494374588 4.613594061221505 47.97591869566021 0 0 0
2082 1 1 0 80.34589080059197 4.685407752804974 47.7807089491391 0 0 0
2214 1 1 0 80.31860767607428 6.010174715898838 48.247007988110504 0 0 0
2629 1 1 0 88.65540655736761 3.9775526704470976 50.07785426904923 0 0 0
2487 1 1 0 87.5394358452602 4.520185396834803 49.417381577012286 0 0 0
2349 1 1 0 82.73673718950391 5.996921146199955 48.3171900783176 0 0 0
2488 1 1 0 85.19930953966518 5.9197450238013065 48.67474855556406 0 0 0
2630 1 1 0 89.9366143287247 4.633344665581054 50.153161521601106 0 0 0
2777 1 1 0 92.46076972304527 4.597345351728607 50.4667440036598 0 0 0
2631 1 1 0 87.59981641709179 5.9150207147108524 49.19034255235463 0 0 0
2778 1 1 0 90.03890450816557 5.912216046776817 49.63915051857111 0 0 0
2929 1 1 0 92.53650619000986 5.827844084000085 49.78509010806545 0 0 0
2779 1 1 0 91.30869468015321 6.536310512497385 49.54534987755927 0 0 0
2489 1 1 0 86.45340244049835 6.586784106582777 48.74712419291997 0 0 0
2632 1 1 0 88.82215866521025 6.573580364114815 49.1991236096045 0 0 0
2350 1 1 0 83.99177077149355 6.630066676686443 48.47612176921853 0 0 0
2215 1 1 0 81.5258953797859 6.648618169877309 48.48333231960074 0 0 0
2927 1 1 0 93.62159119353035 4.093679731191872 51.09152328039205 0 0 0
28169 1 2 0 93.48562714952577 3.1427441970558863 51.597083961785366 0 0 0
2930 1 1 0 93.79804008770796 6.489713358610107 49.84524407957039 0 0 0
28172 1 2 0 95.99269025814893 3.395687850483268 52.322215478960906 0 0 0
28175 1 2 0 98.48152624772419 2.995219309057145 51.70859994542223 0 0 0
28178 1 2 0 101.00134102650864 3.1679034250923936 52.617914586157696 0 0 0
3082 1 1 0 96.0686915342345 4.152004301686408 51.6147299696648 0 0 0
3404 1 1 0 101.02068689968684 4.189434113303267 52.24151200264161 0 0 0
3241 1 1 0 98.56752778019244 4.082416514888495 51.62447702589551 0 0 0
3083 1 1 0 97.34679513929855 4.739389431465797 51.34529437773918 0 0 0
2928 1 1 0 94.92846119953204 4.663408893435784 50.98850510685603 0 0 0
3242 1 1 0 99.82749905949589 4.679177729549132 51.70265329442123 0 0 0
3405 1 1 0 102.24298168861219 4.895259875526273 52.241232522378276 0 0 0
3084 1 1 0 94.99084700859517 5.908315532704029 50.30357813841862 0 0 0
3243 1 1 0 97.43517307430365 6.002743972796523 50.747680925168495 0 0 0
3406 1 1 0 99.89136423843723 6.008062157175036 51.15890382665282 0 0 0
3085 1 1 0 96.2231887959013 6.57419447762316 50.277868188846845 0 0 0
3573 1 1 0 102.33594764275938 6.188749334267285 51.64216625269134 0 0 0
3244 1 1 0 98.68300270690939 6.653985386376631 50.74477270327194 0 0 0
3407 1 1 0 101.11582293687438 6.718030453704388 51.118681097063565 0 0 0
19 1 1 0 0 8.52169 50 0 0 0
20 1 1 0 1.2033158932873074 9.310437261084733 49.99409532872995 0 0 0
21 1 1 0 0 11.362253 50 0 0 0
30 1 1 0 2.4927760342594802 8.663002003307493 50.08708076220031 0 0 0
31 1 1 0 3.7194356399273723 9.412460529070046 50.076192359830436 0 0 0
32 1 1 0 1.2029166555523618 10.724126319772774 49.91646084225817 0 0 0
33 1 1 0 2.4327724371355393 11.492164900094325 49.920983002389605 0 0 0
34 1 1 0 0 12.782535 50 0 0 0
35 1 1 0 1.2109018325543073 13.609755921811047 49.98057326421931 0 0 0
36 1 1 0 0 15.623098 50 0 0 0
45 1 1 0 5.046841170357975 8.808317363028547 50.0871746165652 0 0 0
46 1 1 0 6.290310670528173 9.586402073911714 50.070837502245936 0 0 0
47 1 1 0 3.6986742564133235 10.867378346238622 50.02174423069913 0 0 0
48 1 1 0 4.959069533355302 11.631573835061097 50.00379866730624 0 0 0
49 1 1 0 2.4722175621037246 12.951923481740346 49.82035091246405 0 0 0
50 1 1 0 3.690042545767259 13.694148983264919 49.82837377542288 0 0 0
51 1 1 0 1.2401050642163634 15.017472573604973 49.988049510583316 0 0 0
52 1 1 0 2.437999722017164 15.770138046812589 49.910878243667185 0 0 0
53 1 1 0 0 17.04338 50 0 0 0
54 1 1 0 1.1903433624862305 17.8305647321759 50.0006914494309 0 0 0
55 1 1 0 0 19.883943 50 0 0 0
66 1 1 0 6.262506580058489 11.018968024547469 50.14603471215353 0 0 0
68 1 1 0 4.991443741661957 13.059369626834071 49.94552366827276 0 0 0
69 1 1 0 6.198468978352052 13.870575929559376 50.008205806344534 0 0 0
70 1 1 0 3.702779769210251 15.13827142234905 49.90234950812639 0 0 0
71 1 1 0 4.96433025913943 15.920701113626734 49.90029816292688 0 0 0
72 1 1 0 2.437127236334898 17.159488792684165 49.88615443777362 0 0 0
73 1 1 0 3.672158467900673 17.985200643639452 49.85689643353429 0 0 0
74 1 1 0 1.2273571880519287 19.25453897999884 49.91251652927025 0 0 0
75 1 1 0 2.449853329995171 20.01130232588093 49.80739754287354 0 0 0
76 1 1 0 0 21.304225 50 0 0 0
93 1 1 0 6.213703749201357 15.292514725669188 50.04276329564996 0 0 0
95 1 1 0 4.941757982276371 17.35927795843693 49.89702513632329 0 0 0
96 1 1 0 6.168019365069207 18.157820296594885 49.9868355645158 0 0 0
97 1 1 0 3.7109831648983276 19.3786939179945 49.77768649376054 0 0 0
98 1 1 0 4.956435723624488 20.10465216642081 49.73120370878875 0 0 0
99 1 1 0 2.4806553549350756 21.413176027656462 49.863933040593245 0 0 0
122 1 1 0 7.411677686839664 17.503173016100785 49.998497142625844 0 0 0
124 1 1 0 6.188949720513339 19.556938377924464 49.89181217745401 0 0 0
125 1 1 0 7.423775302467632 20.350655139299654 49.86587739554712 0 0 0
126 1 1 0 4.942866752617086 21.554063855856885 49.7203084751429 0 0 0
28062 1 2 0 -0.943968 9.06669 50 0 0 0
28063 1 2 0 -0.943968 10.817253 50 0 0 0
28065 1 2 0 -0.943968 13.327535 50 0 0 0
28066 1 2 0 -0.943968 15.078098 50 0 0 0
28068 1 2 0 -0.943968 17.58838 50 0 0 0
28069 1 2 0 -0.943968 19.338943 50 0 0 0
157 1 1 0 7.416212368091789 21.769535786950648 49.69838740577864 0 0 0
44 1 1 0 7.6855347300918355 7.603654213943801 49.99483376585089 0 0 0
94 1 1 0 7.442181984338594 16.088845967964378 49.99358220919018 0 0 0
91 1 1 0 7.483519606378448 13.265381876657166 50.05785222890081 0 0 0
67 1 1 0 7.498732590186041 11.808974188931934 50.111437769227194 0 0 0
64 1 1 0 7.596484620544279 9.05371871383174 50.02288338135605 0 0 0
178 1 1 0 18.946254456601995 7.943307057040423 49.845213656901215 0 0 0
217 1 1 0 21.487487081700344 8.09046506483537 49.696204418409025 0 0 0
63 1 1 0 10.170207436305544 7.852230152193936 49.907673963098816 0 0 0
86 1 1 0 12.718712626865308 8.059853821894663 49.96453257829464 0 0 0
113 1 1 0 15.244003304373125 8.278696819452398 50.25598514118994 0 0 0
144 1 1 0 17.68335066345509 8.494187569381072 50.113030151629054 0 0 0
179 1 1 0 20.204115392909575 8.661408035249408 49.931430430533965 0 0 0
65 1 1 0 8.860915234196467 9.834158167132149 50.08439410558399 0 0 0
87 1 1 0 10.166119828363975 9.24774401160846 50.02880931106703 0 0 0
88 1 1 0 11.384109887196145 10.045204376867941 50.16689890302572 0 0 0
89 1 1 0 8.802053583742339 11.243729242723152 50.164994651218024 0 0 0
90 1 1 0 10.032657250784549 12.035899505311331 50.203438566395015 0 0 0
92 1 1 0 8.716476944264897 14.038767431313342 50.19737721456834 0 0 0
114 1 1 0 12.6515995601685 9.470835974012632 50.14257412476282 0 0 0
115 1 1 0 13.867446863983378 10.217630337425636 50.22173813984258 0 0 0
116 1 1 0 11.314910878795857 11.458408723018168 50.20171506204478 0 0 0
117 1 1 0 12.51427099156035 12.240074002795797 50.22702311909031 0 0 0
118 1 1 0 9.991252797180879 13.449412322539331 50.15740430561201 0 0 0
119 1 1 0 11.224976322491566 14.268136371421772 50.13925900448328 0 0 0
120 1 1 0 8.671119691859493 15.478378955061967 50.0955735995138 0 0 0
121 1 1 0 9.920372162354212 16.258557492188917 50.0074158358424 0 0 0
123 1 1 0 8.63718009435352 18.269620498897194 49.874117134589326 0 0 0
145 1 1 0 15.165223960559096 9.681679472830714 50.3143114275644 0 0 0
146 1 1 0 16.39368564117602 10.461379192842221 50.341316528416684 0 0 0
147 1 1 0 13.807782089285876 11.625123698019623 50.19488609593248 0 0 0
148 1 1 0 15.032117970002693 12.410210332420686 50.20943940142636 0 0 0
149 1 1 0 12.518923948272098 13.667578217303955 50.24672397342577 0 0 0
150 1 1 0 13.779341526611933 14.433522503784875 50.17326285556415 0 0 0
151 1 1 0 11.212807050906509 15.676341432334763 50.0692573952772 0 0 0
152 1 1 0 12.45937669730855 16.46379272111251 50.01112449928891 0 0 0
153 1 1 0 9.906068010960787 17.664380995878915 49.97865889664685 0 0 0
154 1 1 0 11.167897334280434 18.433052867491615 49.82678238095304 0 0 0
155 1 1 0 8.671641454460964 19.672430768179918 49.771960439578095 0 0 0
156 1 1 0 9.814371505718515 20.49718384580713 49.65385134999772 0 0 0
180 1 1 0 17.658056079336774 9.892200603463982 50.28913011247819 0 0 0
181 1 1 0 18.8760296736011 10.63247752614077 50.34707391293643 0 0 0
182 1 1 0 16.334226051830736 11.868973768749518 50.34238427748534 0 0 0
183 1 1 0 17.530083159125905 12.64654234443841 50.344038591014225 0 0 0
184 1 1 0 15.011398452616715 13.806441448346673 50.114630872551366 0 0 0
185 1 1 0 16.221651057598088 14.608594167446594 50.08224417628889 0 0 0
186 1 1 0 13.738378777061873 15.819165498251436 50.03261479212812 0 0 0
187 1 1 0 14.931232708471798 16.582636041321347 49.92367658539257 0 0 0
188 1 1 0 12.406132248020691 17.81768054192858 49.811245078297596 0 0 0
189 1 1 0 13.625042870064902 18.544895154440376 49.61323698772632 0 0 0
190 1 1 0 11.110287618346382 19.863838289264724 49.61628460477894 0 0 0
191 1 1 0 12.310125609476135 20.663891790567707 49.481220038048924 0 0 0
219 1 1 0 20.12742259634344 10.074700916241978 50.11825817736177 0 0 0
220 1 1 0 21.32394698800597 10.851558277100706 50.143078716229894 0 0 0
221 1 1 0 18.811842072677443 12.027733810097638 50.45504699451614 0 0 0
222 1 1 0 20.0232521520232 12.824815906869803 50.48063222639828 0 0 0
223 1 1 0 17.507574431451765 14.033198443574074 50.2117682986324 0 0 0
224 1 1 0 18.723197554497425 14.791099087309963 50.28543819075982 0 0 0
225 1 1 0 16.171085188518106 16.0309201737135 49.951049959381464 0 0 0
226 1 1 0 17.453247498944258 16.755287308406004 49.95100243381038 0 0 0
227 1 1 0 14.901001114935324 17.9947820416887 49.83720741666573 0 0 0
228 1 1 0 16.143310509260303 18.69891401303422 49.77037729419218 0 0 0
229 1 1 0 13.57511391686438 19.990710803410217 49.491507790593666 0 0 0
230 1 1 0 14.809184992307399 20.7293398954966 49.576790860846494 0 0 0
264 1 1 0 21.261972102630047 12.26953109788051 50.34181178761074 0 0 0
266 1 1 0 19.995067892297847 14.224786132327091 50.42409619285955 0 0 0
267 1 1 0 21.230978663994634 14.99875693310794 50.60241586445775 0 0 0
268 1 1 0 18.727371263982644 16.162854389793967 50.201994527300975 0 0 0
269 1 1 0 19.939665843935487 16.93914269403779 50.314292800841585 0 0 0
270 1 1 0 17.378609150107692 18.180501782912557 49.946467785366345 0 0 0
271 1 1 0 18.576348666680133 18.917106841665106 50.12051660313029 0 0 0
272 1 1 0 16.1200600810333 20.141249231937643 49.66877000077552 0 0 0
273 1 1 0 17.30336782720571 20.887525181082385 49.776656242292525 0 0 0
315 1 1 0 21.197472836190062 16.38107586275063 50.669085584645416 0 0 0
317 1 1 0 19.867458541564954 18.350620646970743 50.2355561280409 0 0 0
318 1 1 0 21.083787395222682 19.125997856059378 50.371242611422595 0 0 0
319 1 1 0 18.557348684655565 20.302970512683256 50.012730757669054 0 0 0
320 1 1 0 19.798107549950696 21.126068962890844 50.070381437164784 0 0 0
370 1 1 0 21.064241472563616 20.551386771025246 50.2940894739526 0 0 0
192 1 1 0 9.803335931003915 21.886988959351452 49.52349968565615 0 0 0
260 1 1 0 23.962593776792136 8.225688766798175 49.58222354161865 0 0 0
371 1 1 0 22.338917931177082 21.31404213934744 50.26106213591904 0 0 0
307 1 1 0 26.41179003047194 8.360356755903554 49.596736239148804 0 0 0
358 1 1 0 28.812186623243086 8.541163570060476 49.11828106220227 0 0 0
413 1 1 0 31.297957339366747 8.603198316043034 49.01606780048124 0 0 0
472 1 1 0 33.710574341892226 8.653007907890194 49.27201653423001 0 0 0
218 1 1 0 22.681419610196908 8.852654803622466 49.71307782385298 0 0 0
261 1 1 0 25.149289332974366 8.968745587079981 49.799413866071404 0 0 0
308 1 1 0 27.56292304870822 9.140899778909223 49.4229030180678 0 0 0
359 1 1 0 30.019527729342776 9.269736969924631 49.15399320476652 0 0 0
414 1 1 0 32.476202920650536 9.315656603385026 49.31810265461105 0 0 0
473 1 1 0 34.903969886326756 9.323090799462744 49.47505849004173 0 0 0
262 1 1 0 22.58909902170912 10.224302413947177 49.96946827151295 0 0 0
263 1 1 0 23.81648957430514 10.969950226740627 50.04201093448063 0 0 0
265 1 1 0 22.478997825715542 12.966515722535357 50.36291456725086 0 0 0
309 1 1 0 25.07357800202686 10.386829786206278 49.924426588197846 0 0 0
310 1 1 0 26.325674454918346 11.127516104970349 49.8768351267678 0 0 0
311 1 1 0 23.737388012164615 12.372357206374394 50.220998907113966 0 0 0
312 1 1 0 24.97191101194607 13.096963789150315 50.22638865899673 0 0 0
313 1 1 0 22.49605753494822 14.347527707241987 50.55559760000937 0 0 0
314 1 1 0 23.72152140098412 15.121032443738317 50.507487247726516 0 0 0
316 1 1 0 22.40987626527138 17.17039118681589 50.7028581816667 0 0 0
360 1 1 0 27.58588269222607 10.51019348419979 49.68445645935073 0 0 0
361 1 1 0 28.803903773580906 11.223958101810734 49.782706845878856 0 0 0
362 1 1 0 26.2561838928554 12.481121290888089 50.11771108635738 0 0 0
363 1 1 0 27.476718764788977 13.21570765682698 50.12029818210077 0 0 0
364 1 1 0 24.9436872197092 14.47340294368621 50.4401242898848 0 0 0
365 1 1 0 26.149129452578478 15.232617101108746 50.344407189858536 0 0 0
366 1 1 0 23.643561646314186 16.517395972932693 50.73881175544375 0 0 0
367 1 1 0 24.845946573322536 17.270437731251604 50.669850462794464 0 0 0
368 1 1 0 22.325404116964304 18.61827982215566 50.65936758704147 0 0 0
369 1 1 0 23.567431216194098 19.32828363416903 50.809825218229896 0 0 0
415 1 1 0 30.03128487465106 10.608521527421773 49.65916952107809 0 0 0
416 1 1 0 31.232578394164058 11.324432770928322 49.71525158652028 0 0 0
417 1 1 0 28.751010679453938 12.60362502711192 49.99085763256017 0 0 0