LAMMPS data file via write_data, version 7 Feb 2024, timestep = 50000, units = metal

19576 atoms
1 atom types

-66.74 172.52 xlo xhi
-20 201.796 ylo yhi
-5 42.996 zlo zhi

Masses

1 12.011

Atoms # atomic

33 1 -19.68 34.0868 15 0 0 0
35 1 -20.91 36.2172 15 0 0 0
36 1 -19.68 36.9273 15 0 0 0
37 1 -22.14 38.3476 15 0 0 0
38 1 -20.91 39.0577 15 0 0 0
39 1 -23.37 40.478 15 0 0 0
40 1 -22.14 41.1882 15 0 0 0
116 1 -19.68 38.3476 15 0 0 0
118 1 -20.91 40.478 15 0 0 0
119 1 -19.68 41.1882 15 0 0 0
43 1 -25.83 44.7389 15 0 0 0
45 1 -27.06 46.8693 15 0 0 0
46 1 -25.83 47.5794 15 0 0 0
41 1 -24.6 42.6084 15 0 0 0
42 1 -23.37 43.3186 15 0 0 0
44 1 -24.6 45.449 15 0 0 0
120 1 -22.14 42.6084 15 0 0 0
121 1 -20.91 43.3186 15 0 0 0
122 1 -23.37 44.7389 15 0 0 0
123 1 -22.14 45.449 15 0 0 0
124 1 -24.6 46.8693 15 0 0 0
125 1 -23.37 47.5794 15 0 0 0
203 1 -19.68 42.6084 15 0 0 0
205 1 -20.91 44.7389 15 0 0 0
206 1 -19.68 45.449 15 0 0 0
207 1 -22.14 46.8693 15 0 0 0
208 1 -20.91 47.5794 15 0 0 0
294 1 -19.68 46.8693 15 0 0 0
47 1 -28.29 48.9997 15 0 0 0
48 1 -27.06 49.7099 15 0 0 0
49 1 -29.52 51.1301 15 0 0 0
50 1 -28.29 51.8403 15 0 0 0
51 1 -30.75 53.2606 15 0 0 0
126 1 -25.83 48.9997 15 0 0 0
128 1 -27.06 51.1301 15 0 0 0
129 1 -25.83 51.8403 15 0 0 0
130 1 -28.29 53.2606 15 0 0 0
213 1 -25.83 53.2606 15 0 0 0
127 1 -24.6 49.7099 15 0 0 0
209 1 -23.37 48.9997 15 0 0 0
210 1 -22.14 49.7099 15 0 0 0
211 1 -24.6 51.1301 15 0 0 0
212 1 -23.37 51.8403 15 0 0 0
296 1 -20.91 48.9997 15 0 0 0
297 1 -19.68 49.7099 15 0 0 0
298 1 -22.14 51.1301 15 0 0 0
299 1 -20.91 51.8403 15 0 0 0
300 1 -23.37 53.2606 15 0 0 0
389 1 -19.68 51.1301 15 0 0 0
391 1 -20.91 53.2606 15 0 0 0
55 1 -33.21 57.5214 15 0 0 0
57 1 -34.44 59.6518 15 0 0 0
52 1 -29.52 53.9707 15 0 0 0
53 1 -31.98 55.391 15 0 0 0
54 1 -30.75 56.1011 15 0 0 0
56 1 -31.98 58.2315 15 0 0 0
131 1 -27.06 53.9707 15 0 0 0
132 1 -29.52 55.391 15 0 0 0
133 1 -28.29 56.1011 15 0 0 0
134 1 -30.75 57.5214 15 0 0 0
135 1 -29.52 58.2315 15 0 0 0
136 1 -31.98 59.6518 15 0 0 0
215 1 -27.06 55.391 15 0 0 0
216 1 -25.83 56.1011 15 0 0 0
217 1 -28.29 57.5214 15 0 0 0
218 1 -27.06 58.2315 15 0 0 0
219 1 -29.52 59.6518 15 0 0 0
304 1 -25.83 57.5214 15 0 0 0
306 1 -27.06 59.6518 15 0 0 0
214 1 -24.6 53.9707 15 0 0 0
301 1 -22.14 53.9707 15 0 0 0
302 1 -24.6 55.391 15 0 0 0
303 1 -23.37 56.1011 15 0 0 0
305 1 -24.6 58.2315 15 0 0 0
392 1 -19.68 53.9707 15 0 0 0
393 1 -22.14 55.391 15 0 0 0
394 1 -20.91 56.1011 15 0 0 0
395 1 -23.37 57.5214 15 0 0 0
396 1 -22.14 58.2315 15 0 0 0
397 1 -24.6 59.6518 15 0 0 0
488 1 -19.68 55.391 15 0 0 0
490 1 -20.91 57.5214 15 0 0 0
491 1 -19.68 58.2315 15 0 0 0
492 1 -22.14 59.6518 15 0 0 0
591 1 -19.68 59.6518 15 0 0 0
58 1 -33.21 60.362 15 0 0 0
59 1 -35.67 61.7823 15 0 0 0
60 1 -34.44 62.4924 15 0 0 0
61 1 -36.9 63.9127 15 0 0 0
62 1 -35.67 64.6228 15 0 0 0
63 1 -38.13 66.0431 15 0 0 0
138 1 -33.21 61.7823 15 0 0 0
140 1 -34.44 63.9127 15 0 0 0
141 1 -33.21 64.6228 15 0 0 0
142 1 -35.67 66.0431 15 0 0 0
225 1 -33.21 66.0431 15 0 0 0
137 1 -30.75 60.362 15 0 0 0
139 1 -31.98 62.4924 15 0 0 0
220 1 -28.29 60.362 15 0 0 0
221 1 -30.75 61.7823 15 0 0 0
222 1 -29.52 62.4924 15 0 0 0
223 1 -31.98 63.9127 15 0 0 0
224 1 -30.75 64.6228 15 0 0 0
307 1 -25.83 60.362 15 0 0 0
308 1 -28.29 61.7823 15 0 0 0
309 1 -27.06 62.4924 15 0 0 0
310 1 -29.52 63.9127 15 0 0 0
311 1 -28.29 64.6228 15 0 0 0
312 1 -30.75 66.0431 15 0 0 0
399 1 -25.83 61.7823 15 0 0 0
401 1 -27.06 63.9127 15 0 0 0
402 1 -25.83 64.6228 15 0 0 0
403 1 -28.29 66.0431 15 0 0 0
498 1 -25.83 66.0431 15 0 0 0
398 1 -23.37 60.362 15 0 0 0
400 1 -24.6 62.4924 15 0 0 0
493 1 -20.91 60.362 15 0 0 0
494 1 -23.37 61.7823 15 0 0 0
495 1 -22.14 62.4924 15 0 0 0
496 1 -24.6 63.9127 15 0 0 0
497 1 -23.37 64.6228 15 0 0 0
593 1 -20.91 61.7823 15 0 0 0
594 1 -19.68 62.4924 15 0 0 0
595 1 -22.14 63.9127 15 0 0 0
596 1 -20.91 64.6228 15 0 0 0
597 1 -23.37 66.0431 15 0 0 0
698 1 -19.68 63.9127 15 0 0 0
700 1 -20.91 66.0431 15 0 0 0
67 1 -40.59 70.3039 15 0 0 0
64 1 -36.9 66.7532 15 0 0 0
65 1 -39.36 68.1735 15 0 0 0
66 1 -38.13 68.8837 15 0 0 0
68 1 -39.36 71.0141 15 0 0 0
143 1 -34.44 66.7532 15 0 0 0
144 1 -36.9 68.1735 15 0 0 0
145 1 -35.67 68.8837 15 0 0 0
146 1 -38.13 70.3039 15 0 0 0
147 1 -36.9 71.0141 15 0 0 0
227 1 -34.44 68.1735 15 0 0 0
228 1 -33.21 68.8837 15 0 0 0
229 1 -35.67 70.3039 15 0 0 0
230 1 -34.44 71.0141 15 0 0 0
316 1 -33.21 70.3039 15 0 0 0
226 1 -31.98 66.7532 15 0 0 0
313 1 -29.52 66.7532 15 0 0 0
314 1 -31.98 68.1735 15 0 0 0
315 1 -30.75 68.8837 15 0 0 0
317 1 -31.98 71.0141 15 0 0 0
404 1 -27.06 66.7532 15 0 0 0
405 1 -29.52 68.1735 15 0 0 0
406 1 -28.29 68.8837 15 0 0 0
407 1 -30.75 70.3039 15 0 0 0
408 1 -29.52 71.0141 15 0 0 0
500 1 -27.06 68.1735 15 0 0 0
501 1 -25.83 68.8837 15 0 0 0
502 1 -28.29 70.3039 15 0 0 0
503 1 -27.06 71.0141 15 0 0 0
601 1 -25.83 70.3039 15 0 0 0
499 1 -24.6 66.7532 15 0 0 0
598 1 -22.14 66.7532 15 0 0 0
599 1 -24.6 68.1735 15 0 0 0
600 1 -23.37 68.8837 15 0 0 0
602 1 -24.6 71.0141 15 0 0 0
701 1 -19.68 66.7532 15 0 0 0
702 1 -22.14 68.1735 15 0 0 0
703 1 -20.91 68.8837 15 0 0 0
704 1 -23.37 70.3039 15 0 0 0
705 1 -22.14 71.0141 15 0 0 0
809 1 -19.68 68.1735 15 0 0 0
811 1 -20.91 70.3039 15 0 0 0
812 1 -19.68 71.0141 15 0 0 0
69 1 -41.82 72.4344 15 0 0 0
70 1 -40.59 73.1445 15 0 0 0
71 1 -43.05 74.5648 15 0 0 0
72 1 -41.82 75.2749 15 0 0 0
73 1 -44.28 76.6952 15 0 0 0
74 1 -43.05 77.4054 15 0 0 0
150 1 -40.59 74.5648 15 0 0 0
152 1 -41.82 76.6952 15 0 0 0
153 1 -40.59 77.4054 15 0 0 0
148 1 -39.36 72.4344 15 0 0 0
149 1 -38.13 73.1445 15 0 0 0
151 1 -39.36 75.2749 15 0 0 0
231 1 -36.9 72.4344 15 0 0 0
232 1 -35.67 73.1445 15 0 0 0
233 1 -38.13 74.5648 15 0 0 0
234 1 -36.9 75.2749 15 0 0 0
235 1 -39.36 76.6952 15 0 0 0
236 1 -38.13 77.4054 15 0 0 0
318 1 -34.44 72.4344 15 0 0 0
319 1 -33.21 73.1445 15 0 0 0
320 1 -35.67 74.5648 15 0 0 0
321 1 -34.44 75.2749 15 0 0 0
322 1 -36.9 76.6952 15 0 0 0
323 1 -35.67 77.4054 15 0 0 0
411 1 -33.21 74.5648 15 0 0 0
413 1 -34.44 76.6952 15 0 0 0
414 1 -33.21 77.4054 15 0 0 0
409 1 -31.98 72.4344 15 0 0 0
410 1 -30.75 73.1445 15 0 0 0
412 1 -31.98 75.2749 15 0 0 0
504 1 -29.52 72.4344 15 0 0 0
505 1 -28.29 73.1445 15 0 0 0
506 1 -30.75 74.5648 15 0 0 0
507 1 -29.52 75.2749 15 0 0 0
508 1 -31.98 76.6952 15 0 0 0
509 1 -30.75 77.4054 15 0 0 0
603 1 -27.06 72.4344 15 0 0 0
604 1 -25.83 73.1445 15 0 0 0
605 1 -28.29 74.5648 15 0 0 0
606 1 -27.06 75.2749 15 0 0 0
607 1 -29.52 76.6952 15 0 0 0
608 1 -28.29 77.4054 15 0 0 0
708 1 -25.83 74.5648 15 0 0 0
710 1 -27.06 76.6952 15 0 0 0
711 1 -25.83 77.4054 15 0 0 0
706 1 -24.6 72.4344 15 0 0 0
707 1 -23.37 73.1445 15 0 0 0
709 1 -24.6 75.2749 15 0 0 0
813 1 -22.14 72.4344 15 0 0 0
814 1 -20.91 73.1445 15 0 0 0
815 1 -23.37 74.5648 15 0 0 0
816 1 -22.14 75.2749 15 0 0 0
817 1 -24.6 76.6952 15 0 0 0
818 1 -23.37 77.4054 15 0 0 0
924 1 -19.68 72.4344 15 0 0 0
926 1 -20.91 74.5648 15 0 0 0
927 1 -19.68 75.2749 15 0 0 0
928 1 -22.14 76.6952 15 0 0 0
929 1 -20.91 77.4054 15 0 0 0
1043 1 -19.68 76.6952 15 0 0 0
77 1 -46.74 80.9561 15 0 0 0
79 1 -46.74 83.7966 15 0 0 0
75 1 -45.51 78.8256 15 0 0 0
76 1 -44.28 79.5358 15 0 0 0
78 1 -45.51 81.6662 15 0 0 0
154 1 -43.05 78.8256 15 0 0 0
155 1 -41.82 79.5358 15 0 0 0
156 1 -44.28 80.9561 15 0 0 0
157 1 -43.05 81.6662 15 0 0 0
158 1 -45.51 83.0865 15 0 0 0
159 1 -44.28 83.7966 15 0 0 0
237 1 -40.59 78.8256 15 0 0 0
239 1 -41.82 80.9561 15 0 0 0
240 1 -40.59 81.6662 15 0 0 0
241 1 -43.05 83.0865 15 0 0 0
242 1 -41.82 83.7966 15 0 0 0
328 1 -40.59 83.0865 15 0 0 0
238 1 -39.36 79.5358 15 0 0 0
324 1 -38.13 78.8256 15 0 0 0
325 1 -36.9 79.5358 15 0 0 0
326 1 -39.36 80.9561 15 0 0 0
327 1 -38.13 81.6662 15 0 0 0
329 1 -39.36 83.7966 15 0 0 0
415 1 -35.67 78.8256 15 0 0 0
416 1 -34.44 79.5358 15 0 0 0
417 1 -36.9 80.9561 15 0 0 0
418 1 -35.67 81.6662 15 0 0 0
419 1 -38.13 83.0865 15 0 0 0
420 1 -36.9 83.7966 15 0 0 0
510 1 -33.21 78.8256 15 0 0 0
512 1 -34.44 80.9561 15 0 0 0
513 1 -33.21 81.6662 15 0 0 0
514 1 -35.67 83.0865 15 0 0 0
515 1 -34.44 83.7966 15 0 0 0
613 1 -33.21 83.0865 15 0 0 0
511 1 -31.98 79.5358 15 0 0 0
609 1 -30.75 78.8256 15 0 0 0
610 1 -29.52 79.5358 15 0 0 0
611 1 -31.98 80.9561 15 0 0 0
612 1 -30.75 81.6662 15 0 0 0
614 1 -31.98 83.7966 15 0 0 0
712 1 -28.29 78.8256 15 0 0 0
713 1 -27.06 79.5358 15 0 0 0
714 1 -29.52 80.9561 15 0 0 0
715 1 -28.29 81.6662 15 0 0 0
716 1 -30.75 83.0865 15 0 0 0
717 1 -29.52 83.7966 15 0 0 0
819 1 -25.83 78.8256 15 0 0 0
821 1 -27.06 80.9561 15 0 0 0
822 1 -25.83 81.6662 15 0 0 0
823 1 -28.29 83.0865 15 0 0 0
824 1 -27.06 83.7966 15 0 0 0
934 1 -25.83 83.0865 15 0 0 0
820 1 -24.6 79.5358 15 0 0 0
930 1 -23.37 78.8256 15 0 0 0
931 1 -22.14 79.5358 15 0 0 0
932 1 -24.6 80.9561 15 0 0 0
933 1 -23.37 81.6662 15 0 0 0
935 1 -24.6 83.7966 15 0 0 0
1045 1 -20.91 78.8256 15 0 0 0
1046 1 -19.68 79.5358 15 0 0 0
1047 1 -22.14 80.9561 15 0 0 0
1048 1 -20.91 81.6662 15 0 0 0
1049 1 -23.37 83.0865 15 0 0 0
1050 1 -22.14 83.7966 15 0 0 0
1166 1 -19.68 80.9561 15 0 0 0
1168 1 -20.91 83.0865 15 0 0 0
1169 1 -19.68 83.7966 15 0 0 0
160 1 -46.74 85.2169 15 0 0 0
162 1 -46.74 88.0575 15 0 0 0
247 1 -46.74 89.4777 15 0 0 0
161 1 -45.51 85.927 15 0 0 0
243 1 -44.28 85.2169 15 0 0 0
244 1 -43.05 85.927 15 0 0 0
245 1 -45.51 87.3473 15 0 0 0
246 1 -44.28 88.0575 15 0 0 0
248 1 -45.51 90.1879 15 0 0 0
330 1 -41.82 85.2169 15 0 0 0
331 1 -40.59 85.927 15 0 0 0
332 1 -43.05 87.3473 15 0 0 0
333 1 -41.82 88.0575 15 0 0 0
334 1 -44.28 89.4777 15 0 0 0
335 1 -43.05 90.1879 15 0 0 0
423 1 -40.59 87.3473 15 0 0 0
425 1 -41.82 89.4777 15 0 0 0
426 1 -40.59 90.1879 15 0 0 0
421 1 -39.36 85.2169 15 0 0 0
422 1 -38.13 85.927 15 0 0 0
424 1 -39.36 88.0575 15 0 0 0
516 1 -36.9 85.2169 15 0 0 0
517 1 -35.67 85.927 15 0 0 0
518 1 -38.13 87.3473 15 0 0 0
519 1 -36.9 88.0575 15 0 0 0
520 1 -39.36 89.4777 15 0 0 0
521 1 -38.13 90.1879 15 0 0 0
615 1 -34.44 85.2169 15 0 0 0
616 1 -33.21 85.927 15 0 0 0
617 1 -35.67 87.3473 15 0 0 0
618 1 -34.44 88.0575 15 0 0 0
619 1 -36.9 89.4777 15 0 0 0
620 1 -35.67 90.1879 15 0 0 0
720 1 -33.21 87.3473 15 0 0 0
722 1 -34.44 89.4777 15 0 0 0
723 1 -33.21 90.1879 15 0 0 0
718 1 -31.98 85.2169 15 0 0 0
719 1 -30.75 85.927 15 0 0 0
721 1 -31.98 88.0575 15 0 0 0
825 1 -29.52 85.2169 15 0 0 0
826 1 -28.29 85.927 15 0 0 0
827 1 -30.75 87.3473 15 0 0 0
828 1 -29.52 88.0575 15 0 0 0
829 1 -31.98 89.4777 15 0 0 0
830 1 -30.75 90.1879 15 0 0 0
936 1 -27.06 85.2169 15 0 0 0
937 1 -25.83 85.927 15 0 0 0
938 1 -28.29 87.3473 15 0 0 0
939 1 -27.06 88.0575 15 0 0 0
940 1 -29.52 89.4777 15 0 0 0
941 1 -28.29 90.1879 15 0 0 0
1053 1 -25.83 87.3473 15 0 0 0
1055 1 -27.06 89.4777 15 0 0 0
1056 1 -25.83 90.1879 15 0 0 0
1051 1 -24.6 85.2169 15 0 0 0
1052 1 -23.37 85.927 15 0 0 0
1054 1 -24.6 88.0575 15 0 0 0
1170 1 -22.14 85.2169 15 0 0 0
1171 1 -20.91 85.927 15 0 0 0
1172 1 -23.37 87.3473 15 0 0 0
1173 1 -22.14 88.0575 15 0 0 0
1174 1 -24.6 89.4777 15 0 0 0
1175 1 -23.37 90.1879 15 0 0 0
1293 1 -19.68 85.2169 15 0 0 0
1295 1 -20.91 87.3473 15 0 0 0
1296 1 -19.68 88.0575 15 0 0 0
1297 1 -22.14 89.4777 15 0 0 0
1298 1 -20.91 90.1879 15 0 0 0
1424 1 -19.68 89.4777 15 0 0 0
249 1 -46.74 92.3183 15 0 0 0
338 1 -46.74 93.7386 15 0 0 0
340 1 -46.74 96.5792 15 0 0 0
336 1 -45.51 91.6082 15 0 0 0
337 1 -44.28 92.3183 15 0 0 0
339 1 -45.51 94.4487 15 0 0 0
427 1 -43.05 91.6082 15 0 0 0
428 1 -41.82 92.3183 15 0 0 0
429 1 -44.28 93.7386 15 0 0 0
430 1 -43.05 94.4487 15 0 0 0
431 1 -45.51 95.869 15 0 0 0
432 1 -44.28 96.5792 15 0 0 0
522 1 -40.59 91.6082 15 0 0 0
524 1 -41.82 93.7386 15 0 0 0
525 1 -40.59 94.4487 15 0 0 0
526 1 -43.05 95.869 15 0 0 0
527 1 -41.82 96.5792 15 0 0 0
625 1 -40.59 95.869 15 0 0 0
523 1 -39.36 92.3183 15 0 0 0
621 1 -38.13 91.6082 15 0 0 0
622 1 -36.9 92.3183 15 0 0 0
623 1 -39.36 93.7386 15 0 0 0
624 1 -38.13 94.4487 15 0 0 0
626 1 -39.36 96.5792 15 0 0 0
724 1 -35.67 91.6082 15 0 0 0
725 1 -34.44 92.3183 15 0 0 0
726 1 -36.9 93.7386 15 0 0 0
727 1 -35.67 94.4487 15 0 0 0
728 1 -38.13 95.869 15 0 0 0
729 1 -36.9 96.5792 15 0 0 0
831 1 -33.21 91.6082 15 0 0 0
833 1 -34.44 93.7386 15 0 0 0
834 1 -33.21 94.4487 15 0 0 0
835 1 -35.67 95.869 15 0 0 0
836 1 -34.44 96.5792 15 0 0 0
946 1 -33.21 95.869 15 0 0 0
832 1 -31.98 92.3183 15 0 0 0
942 1 -30.75 91.6082 15 0 0 0
943 1 -29.52 92.3183 15 0 0 0
944 1 -31.98 93.7386 15 0 0 0
945 1 -30.75 94.4487 15 0 0 0
947 1 -31.98 96.5792 15 0 0 0
1057 1 -28.29 91.6082 15 0 0 0
1058 1 -27.06 92.3183 15 0 0 0
1059 1 -29.52 93.7386 15 0 0 0
1060 1 -28.29 94.4487 15 0 0 0
1061 1 -30.75 95.869 15 0 0 0
1062 1 -29.52 96.5792 15 0 0 0
1176 1 -25.83 91.6082 15 0 0 0
1178 1 -27.06 93.7386 15 0 0 0
1179 1 -25.83 94.4487 15 0 0 0
1180 1 -28.29 95.869 15 0 0 0
1181 1 -27.06 96.5792 15 0 0 0
1303 1 -25.83 95.869 15 0 0 0
1177 1 -24.6 92.3183 15 0 0 0
1299 1 -23.37 91.6082 15 0 0 0
1300 1 -22.14 92.3183 15 0 0 0
1301 1 -24.6 93.7386 15 0 0 0
1302 1 -23.37 94.4487 15 0 0 0
1304 1 -24.6 96.5792 15 0 0 0
1426 1 -20.91 91.6082 15 0 0 0
1427 1 -19.68 92.3183 15 0 0 0
1428 1 -22.14 93.7386 15 0 0 0
1429 1 -20.91 94.4487 15 0 0 0
1430 1 -23.37 95.869 15 0 0 0
1431 1 -22.14 96.5792 15 0 0 0
1559 1 -19.68 93.7386 15 0 0 0
1561 1 -20.91 95.869 15 0 0 0
1562 1 -19.68 96.5792 15 0 0 0
433 1 -46.74 97.9994 15 0 0 0
435 1 -46.74 100.84 15 0 0 0
532 1 -46.74 102.2603 15 0 0 0
434 1 -45.51 98.7096 15 0 0 0
528 1 -44.28 97.9994 15 0 0 0
529 1 -43.05 98.7096 15 0 0 0
530 1 -45.51 100.1299 15 0 0 0
531 1 -44.28 100.84 15 0 0 0
533 1 -45.51 102.9704 15 0 0 0
627 1 -41.82 97.9994 15 0 0 0
628 1 -40.59 98.7096 15 0 0 0
629 1 -43.05 100.1299 15 0 0 0
630 1 -41.82 100.84 15 0 0 0
631 1 -44.28 102.2603 15 0 0 0
632 1 -43.05 102.9704 15 0 0 0
732 1 -40.59 100.1299 15 0 0 0
734 1 -41.82 102.2603 15 0 0 0
735 1 -40.59 102.9704 15 0 0 0
730 1 -39.36 97.9994 15 0 0 0
731 1 -38.13 98.7096 15 0 0 0
733 1 -39.36 100.84 15 0 0 0
837 1 -36.9 97.9994 15 0 0 0
838 1 -35.67 98.7096 15 0 0 0
839 1 -38.13 100.1299 15 0 0 0
840 1 -36.9 100.84 15 0 0 0
841 1 -39.36 102.2603 15 0 0 0
842 1 -38.13 102.9704 15 0 0 0
948 1 -34.44 97.9994 15 0 0 0
949 1 -33.21 98.7096 15 0 0 0
950 1 -35.67 100.1299 15 0 0 0
951 1 -34.44 100.84 15 0 0 0
952 1 -36.9 102.2603 15 0 0 0
953 1 -35.67 102.9704 15 0 0 0
1065 1 -33.21 100.1299 15 0 0 0
1067 1 -34.44 102.2603 15 0 0 0
1068 1 -33.21 102.9704 15 0 0 0
1063 1 -31.98 97.9994 15 0 0 0
1064 1 -30.75 98.7096 15 0 0 0
1066 1 -31.98 100.84 15 0 0 0
1182 1 -29.52 97.9994 15 0 0 0
1183 1 -28.29 98.7096 15 0 0 0
1184 1 -30.75 100.1299 15 0 0 0
1185 1 -29.52 100.84 15 0 0 0
1186 1 -31.98 102.2603 15 0 0 0
1187 1 -30.75 102.9704 15 0 0 0
1305 1 -27.06 97.9994 15 0 0 0
1306 1 -25.83 98.7096 15 0 0 0
1307 1 -28.29 100.1299 15 0 0 0
1308 1 -27.06 100.84 15 0 0 0
1309 1 -29.52 102.2603 15 0 0 0
1310 1 -28.29 102.9704 15 0 0 0
1434 1 -25.83 100.1299 15 0 0 0
1436 1 -27.06 102.2603 15 0 0 0
1437 1 -25.83 102.9704 15 0 0 0
1432 1 -24.6 97.9994 15 0 0 0
1433 1 -23.37 98.7096 15 0 0 0
1435 1 -24.6 100.84 15 0 0 0
1563 1 -22.14 97.9994 15 0 0 0
1564 1 -20.91 98.7096 15 0 0 0
1565 1 -23.37 100.1299 15 0 0 0
1566 1 -22.14 100.84 15 0 0 0
1567 1 -24.6 102.2603 15 0 0 0
1568 1 -23.37 102.9704 15 0 0 0
1698 1 -19.68 97.9994 15 0 0 0
1700 1 -20.91 100.1299 15 0 0 0
1701 1 -19.68 100.84 15 0 0 0
1702 1 -22.14 102.2603 15 0 0 0
1703 1 -20.91 102.9704 15 0 0 0
1841 1 -19.68 102.2603 15 0 0 0
534 1 -46.74 105.1008 15 0 0 0
635 1 -46.74 106.5211 15 0 0 0
637 1 -46.74 109.3617 15 0 0 0
633 1 -45.51 104.3907 15 0 0 0
634 1 -44.28 105.1008 15 0 0 0
636 1 -45.51 107.2313 15 0 0 0
736 1 -43.05 104.3907 15 0 0 0
737 1 -41.82 105.1008 15 0 0 0
738 1 -44.28 106.5211 15 0 0 0
739 1 -43.05 107.2313 15 0 0 0
740 1 -45.51 108.6515 15 0 0 0
741 1 -44.28 109.3617 15 0 0 0
843 1 -40.59 104.3907 15 0 0 0
845 1 -41.82 106.5211 15 0 0 0
846 1 -40.59 107.2313 15 0 0 0
847 1 -43.05 108.6515 15 0 0 0
848 1 -41.82 109.3617 15 0 0 0
958 1 -40.59 108.6515 15 0 0 0
844 1 -39.36 105.1008 15 0 0 0
954 1 -38.13 104.3907 15 0 0 0
955 1 -36.9 105.1008 15 0 0 0
956 1 -39.36 106.5211 15 0 0 0
957 1 -38.13 107.2313 15 0 0 0
959 1 -39.36 109.3617 15 0 0 0
1069 1 -35.67 104.3907 15 0 0 0
1070 1 -34.44 105.1008 15 0 0 0
1071 1 -36.9 106.5211 15 0 0 0
1072 1 -35.67 107.2313 15 0 0 0
1073 1 -38.13 108.6515 15 0 0 0
1074 1 -36.9 109.3617 15 0 0 0
1188 1 -33.21 104.3907 15 0 0 0
1190 1 -34.44 106.5211 15 0 0 0
1191 1 -33.21 107.2313 15 0 0 0
1192 1 -35.67 108.6515 15 0 0 0
1193 1 -34.44 109.3617 15 0 0 0
1315 1 -33.21 108.6515 15 0 0 0
1189 1 -31.98 105.1008 15 0 0 0
1311 1 -30.75 104.3907 15 0 0 0
1312 1 -29.52 105.1008 15 0 0 0
1313 1 -31.98 106.5211 15 0 0 0
1314 1 -30.75 107.2313 15 0 0 0
1316 1 -31.98 109.3617 15 0 0 0
1438 1 -28.29 104.3907 15 0 0 0
1439 1 -27.06 105.1008 15 0 0 0
1440 1 -29.52 106.5211 15 0 0 0
1441 1 -28.29 107.2313 15 0 0 0
1442 1 -30.75 108.6515 15 0 0 0
1443 1 -29.52 109.3617 15 0 0 0
1569 1 -25.83 104.3907 15 0 0 0
1571 1 -27.06 106.5211 15 0 0 0
1572 1 -25.83 107.2313 15 0 0 0
1573 1 -28.29 108.6515 15 0 0 0
1574 1 -27.06 109.3617 15 0 0 0
1708 1 -25.83 108.6515 15 0 0 0
1570 1 -24.6 105.1008 15 0 0 0
1704 1 -23.37 104.3907 15 0 0 0
1705 1 -22.14 105.1008 15 0 0 0
1706 1 -24.6 106.5211 15 0 0 0
1707 1 -23.37 107.2313 15 0 0 0
1709 1 -24.6 109.3617 15 0 0 0
1843 1 -20.91 104.3907 15 0 0 0
1844 1 -19.68 105.1008 15 0 0 0
1845 1 -22.14 106.5211 15 0 0 0
1846 1 -20.91 107.2313 15 0 0 0
1847 1 -23.37 108.6515 15 0 0 0
1848 1 -22.14 109.3617 15 0 0 0
1988 1 -19.68 106.5211 15 0 0 0
1990 1 -20.91 108.6515 15 0 0 0
1991 1 -19.68 109.3617 15 0 0 0
742 1 -46.74 110.782 15 0 0 0
744 1 -46.74 113.6225 15 0 0 0
853 1 -46.74 115.0428 15 0 0 0
743 1 -45.51 111.4921 15 0 0 0
849 1 -44.28 110.782 15 0 0 0
850 1 -43.05 111.4921 15 0 0 0
851 1 -45.51 112.9124 15 0 0 0
852 1 -44.28 113.6225 15 0 0 0
960 1 -41.82 110.782 15 0 0 0
961 1 -40.59 111.4921 15 0 0 0
962 1 -43.05 112.9124 15 0 0 0
963 1 -41.82 113.6225 15 0 0 0
964 1 -44.28 115.0428 15 0 0 0
1077 1 -40.59 112.9124 15 0 0 0
1079 1 -41.82 115.0428 15 0 0 0
1075 1 -39.36 110.782 15 0 0 0
1076 1 -38.13 111.4921 15 0 0 0
1078 1 -39.36 113.6225 15 0 0 0
1194 1 -36.9 110.782 15 0 0 0
1195 1 -35.67 111.4921 15 0 0 0
1196 1 -38.13 112.9124 15 0 0 0
1197 1 -36.9 113.6225 15 0 0 0
1198 1 -39.36 115.0428 15 0 0 0
1317 1 -34.44 110.782 15 0 0 0
1318 1 -33.21 111.4921 15 0 0 0
1319 1 -35.67 112.9124 15 0 0 0
1320 1 -34.44 113.6225 15 0 0 0
1321 1 -36.9 115.0428 15 0 0 0
1446 1 -33.21 112.9124 15 0 0 0
1448 1 -34.44 115.0428 15 0 0 0
1444 1 -31.98 110.782 15 0 0 0
1445 1 -30.75 111.4921 15 0 0 0
1447 1 -31.98 113.6225 15 0 0 0
1575 1 -29.52 110.782 15 0 0 0
1576 1 -28.29 111.4921 15 0 0 0
1577 1 -30.75 112.9124 15 0 0 0
1578 1 -29.52 113.6225 15 0 0 0
1579 1 -31.98 115.0428 15 0 0 0
1710 1 -27.06 110.782 15 0 0 0
1711 1 -25.83 111.4921 15 0 0 0
1712 1 -28.29 112.9124 15 0 0 0
1713 1 -27.06 113.6225 15 0 0 0
1714 1 -29.52 115.0428 15 0 0 0
1851 1 -25.83 112.9124 15 0 0 0
1853 1 -27.06 115.0428 15 0 0 0
1849 1 -24.6 110.782 15 0 0 0
1850 1 -23.37 111.4921 15 0 0 0
1852 1 -24.6 113.6225 15 0 0 0
1992 1 -22.14 110.782 15 0 0 0
1993 1 -20.91 111.4921 15 0 0 0
1994 1 -23.37 112.9124 15 0 0 0
1995 1 -22.14 113.6225 15 0 0 0
1996 1 -24.6 115.0428 15 0 0 0
2139 1 -19.68 110.782 15 0 0 0
2141 1 -20.91 112.9124 15 0 0 0
2142 1 -19.68 113.6225 15 0 0 0
2143 1 -22.14 115.0428 15 0 0 0
2294 1 -19.68 115.0428 15 0 0 0
855 1 -46.74 117.8834 15 0 0 0
968 1 -46.74 119.3037 15 0 0 0
854 1 -45.51 115.753 15 0 0 0
965 1 -43.05 115.753 15 0 0 0
966 1 -45.51 117.1732 15 0 0 0
967 1 -44.28 117.8834 15 0 0 0
969 1 -45.51 120.0138 15 0 0 0
1080 1 -40.59 115.753 15 0 0 0
1081 1 -43.05 117.1732 15 0 0 0
1082 1 -41.82 117.8834 15 0 0 0
1083 1 -44.28 119.3037 15 0 0 0
1084 1 -43.05 120.0138 15 0 0 0
1085 1 -45.51 121.4341 15 0 0 0
1200 1 -40.59 117.1732 15 0 0 0
1202 1 -41.82 119.3037 15 0 0 0
1203 1 -40.59 120.0138 15 0 0 0
1204 1 -43.05 121.4341 15 0 0 0
1327 1 -40.59 121.4341 15 0 0 0
1199 1 -38.13 115.753 15 0 0 0
1201 1 -39.36 117.8834 15 0 0 0
1322 1 -35.67 115.753 15 0 0 0
1323 1 -38.13 117.1732 15 0 0 0
1324 1 -36.9 117.8834 15 0 0 0
1325 1 -39.36 119.3037 15 0 0 0
1326 1 -38.13 120.0138 15 0 0 0
1449 1 -33.21 115.753 15 0 0 0
1450 1 -35.67 117.1732 15 0 0 0
1451 1 -34.44 117.8834 15 0 0 0
1452 1 -36.9 119.3037 15 0 0 0
1453 1 -35.67 120.0138 15 0 0 0
1454 1 -38.13 121.4341 15 0 0 0
1581 1 -33.21 117.1732 15 0 0 0
1583 1 -34.44 119.3037 15 0 0 0
1584 1 -33.21 120.0138 15 0 0 0
1585 1 -35.67 121.4341 15 0 0 0
1720 1 -33.21 121.4341 15 0 0 0
1580 1 -30.75 115.753 15 0 0 0
1582 1 -31.98 117.8834 15 0 0 0
1715 1 -28.29 115.753 15 0 0 0
1716 1 -30.75 117.1732 15 0 0 0
1717 1 -29.52 117.8834 15 0 0 0
1718 1 -31.98 119.3037 15 0 0 0
1719 1 -30.75 120.0138 15 0 0 0
1854 1 -25.83 115.753 15 0 0 0
1855 1 -28.29 117.1732 15 0 0 0
1856 1 -27.06 117.8834 15 0 0 0
1857 1 -29.52 119.3037 15 0 0 0
1858 1 -28.29 120.0138 15 0 0 0
1859 1 -30.75 121.4341 15 0 0 0
1998 1 -25.83 117.1732 15 0 0 0
2000 1 -27.06 119.3037 15 0 0 0
2001 1 -25.83 120.0138 15 0 0 0
2002 1 -28.29 121.4341 15 0 0 0
2149 1 -25.83 121.4341 15 0 0 0
1997 1 -23.37 115.753 15 0 0 0
1999 1 -24.6 117.8834 15 0 0 0
2144 1 -20.91 115.753 15 0 0 0
2145 1 -23.37 117.1732 15 0 0 0
2146 1 -22.14 117.8834 15 0 0 0
2147 1 -24.6 119.3037 15 0 0 0
2148 1 -23.37 120.0138 15 0 0 0
2296 1 -20.91 117.1732 15 0 0 0
2297 1 -19.68 117.8834 15 0 0 0
2298 1 -22.14 119.3037 15 0 0 0
2299 1 -20.91 120.0138 15 0 0 0
2300 1 -23.37 121.4341 15 0 0 0
2453 1 -19.68 119.3037 15 0 0 0
2455 1 -20.91 121.4341 15 0 0 0
970 1 -46.74 122.1442 15 0 0 0
1087 1 -46.74 123.5645 15 0 0 0
1089 1 -46.74 126.4051 15 0 0 0
1210 1 -46.74 127.8253 15 0 0 0
1086 1 -44.28 122.1442 15 0 0 0
1088 1 -45.51 124.2746 15 0 0 0
1205 1 -41.82 122.1442 15 0 0 0
1206 1 -44.28 123.5645 15 0 0 0
1207 1 -43.05 124.2746 15 0 0 0
1208 1 -45.51 125.6949 15 0 0 0
1209 1 -44.28 126.4051 15 0 0 0
1329 1 -41.82 123.5645 15 0 0 0
1330 1 -40.59 124.2746 15 0 0 0
1331 1 -43.05 125.6949 15 0 0 0
1332 1 -41.82 126.4051 15 0 0 0
1333 1 -44.28 127.8253 15 0 0 0
1458 1 -40.59 125.6949 15 0 0 0
1460 1 -41.82 127.8253 15 0 0 0
1328 1 -39.36 122.1442 15 0 0 0
1455 1 -36.9 122.1442 15 0 0 0
1456 1 -39.36 123.5645 15 0 0 0
1457 1 -38.13 124.2746 15 0 0 0
1459 1 -39.36 126.4051 15 0 0 0
1586 1 -34.44 122.1442 15 0 0 0
1587 1 -36.9 123.5645 15 0 0 0
1588 1 -35.67 124.2746 15 0 0 0
1589 1 -38.13 125.6949 15 0 0 0
1590 1 -36.9 126.4051 15 0 0 0
1591 1 -39.36 127.8253 15 0 0 0
1722 1 -34.44 123.5645 15 0 0 0
1723 1 -33.21 124.2746 15 0 0 0
1724 1 -35.67 125.6949 15 0 0 0
1725 1 -34.44 126.4051 15 0 0 0
1726 1 -36.9 127.8253 15 0 0 0
1863 1 -33.21 125.6949 15 0 0 0
1865 1 -34.44 127.8253 15 0 0 0
1721 1 -31.98 122.1442 15 0 0 0
1860 1 -29.52 122.1442 15 0 0 0
1861 1 -31.98 123.5645 15 0 0 0
1862 1 -30.75 124.2746 15 0 0 0
1864 1 -31.98 126.4051 15 0 0 0
2003 1 -27.06 122.1442 15 0 0 0
2004 1 -29.52 123.5645 15 0 0 0
2005 1 -28.29 124.2746 15 0 0 0
2006 1 -30.75 125.6949 15 0 0 0
2007 1 -29.52 126.4051 15 0 0 0
2008 1 -31.98 127.8253 15 0 0 0
2151 1 -27.06 123.5645 15 0 0 0
2152 1 -25.83 124.2746 15 0 0 0
2153 1 -28.29 125.6949 15 0 0 0
2154 1 -27.06 126.4051 15 0 0 0
2155 1 -29.52 127.8253 15 0 0 0
2304 1 -25.83 125.6949 15 0 0 0
2306 1 -27.06 127.8253 15 0 0 0
2150 1 -24.6 122.1442 15 0 0 0
2301 1 -22.14 122.1442 15 0 0 0
2302 1 -24.6 123.5645 15 0 0 0
2303 1 -23.37 124.2746 15 0 0 0
2305 1 -24.6 126.4051 15 0 0 0
2456 1 -19.68 122.1442 15 0 0 0
2457 1 -22.14 123.5645 15 0 0 0
2458 1 -20.91 124.2746 15 0 0 0
2459 1 -23.37 125.6949 15 0 0 0
2460 1 -22.14 126.4051 15 0 0 0
2461 1 -24.6 127.8253 15 0 0 0
2616 1 -19.68 123.5645 15 0 0 0
2618 1 -20.91 125.6949 15 0 0 0
2619 1 -19.68 126.4051 15 0 0 0
2620 1 -22.14 127.8253 15 0 0 0
2783 1 -19.68 127.8253 15 0 0 0
1212 1 -46.74 130.6659 15 0 0 0
1337 1 -46.74 132.0862 15 0 0 0
1211 1 -45.51 128.5355 15 0 0 0
1334 1 -43.05 128.5355 15 0 0 0
1335 1 -45.51 129.9558 15 0 0 0
1336 1 -44.28 130.6659 15 0 0 0
1338 1 -45.51 132.7963 15 0 0 0
1461 1 -40.59 128.5355 15 0 0 0
1462 1 -43.05 129.9558 15 0 0 0
1463 1 -41.82 130.6659 15 0 0 0
1464 1 -44.28 132.0862 15 0 0 0
1465 1 -43.05 132.7963 15 0 0 0
1593 1 -40.59 129.9558 15 0 0 0
1595 1 -41.82 132.0862 15 0 0 0
1596 1 -40.59 132.7963 15 0 0 0
1592 1 -38.13 128.5355 15 0 0 0
1594 1 -39.36 130.6659 15 0 0 0
1727 1 -35.67 128.5355 15 0 0 0
1728 1 -38.13 129.9558 15 0 0 0
1729 1 -36.9 130.6659 15 0 0 0
1730 1 -39.36 132.0862 15 0 0 0
1731 1 -38.13 132.7963 15 0 0 0
1866 1 -33.21 128.5355 15 0 0 0
1867 1 -35.67 129.9558 15 0 0 0
1868 1 -34.44 130.6659 15 0 0 0
1869 1 -36.9 132.0862 15 0 0 0
1870 1 -35.67 132.7963 15 0 0 0
2010 1 -33.21 129.9558 15 0 0 0
2012 1 -34.44 132.0862 15 0 0 0
2013 1 -33.21 132.7963 15 0 0 0
2009 1 -30.75 128.5355 15 0 0 0
2011 1 -31.98 130.6659 15 0 0 0
2156 1 -28.29 128.5355 15 0 0 0
2157 1 -30.75 129.9558 15 0 0 0
2158 1 -29.52 130.6659 15 0 0 0
2159 1 -31.98 132.0862 15 0 0 0
2160 1 -30.75 132.7963 15 0 0 0
2307 1 -25.83 128.5355 15 0 0 0
2308 1 -28.29 129.9558 15 0 0 0
2309 1 -27.06 130.6659 15 0 0 0
2310 1 -29.52 132.0862 15 0 0 0
2311 1 -28.29 132.7963 15 0 0 0
2463 1 -25.83 129.9558 15 0 0 0
2465 1 -27.06 132.0862 15 0 0 0
2466 1 -25.83 132.7963 15 0 0 0
2462 1 -23.37 128.5355 15 0 0 0
2464 1 -24.6 130.6659 15 0 0 0
2621 1 -20.91 128.5355 15 0 0 0
2622 1 -23.37 129.9558 15 0 0 0
2623 1 -22.14 130.6659 15 0 0 0
2624 1 -24.6 132.0862 15 0 0 0
2625 1 -23.37 132.7963 15 0 0 0
2785 1 -20.91 129.9558 15 0 0 0
2786 1 -19.68 130.6659 15 0 0 0
2787 1 -22.14 132.0862 15 0 0 0
2788 1 -20.91 132.7963 15 0 0 0
2954 1 -19.68 132.0862 15 0 0 0
1339 1 -46.74 134.9268 15 0 0 0
1468 1 -46.74 136.347 15 0 0 0
1470 1 -46.74 139.1876 15 0 0 0
1466 1 -45.51 134.2166 15 0 0 0
1467 1 -44.28 134.9268 15 0 0 0
1469 1 -45.51 137.0572 15 0 0 0
1597 1 -43.05 134.2166 15 0 0 0
1598 1 -41.82 134.9268 15 0 0 0
1599 1 -44.28 136.347 15 0 0 0
1600 1 -43.05 137.0572 15 0 0 0
1601 1 -45.51 138.4775 15 0 0 0
1602 1 -44.28 139.1876 15 0 0 0
1732 1 -40.59 134.2166 15 0 0 0
1734 1 -41.82 136.347 15 0 0 0
1735 1 -40.59 137.0572 15 0 0 0
1736 1 -43.05 138.4775 15 0 0 0
1737 1 -41.82 139.1876 15 0 0 0
1875 1 -40.59 138.4775 15 0 0 0
1733 1 -39.36 134.9268 15 0 0 0
1871 1 -38.13 134.2166 15 0 0 0
1872 1 -36.9 134.9268 15 0 0 0
1873 1 -39.36 136.347 15 0 0 0
1874 1 -38.13 137.0572 15 0 0 0
1876 1 -39.36 139.1876 15 0 0 0
2014 1 -35.67 134.2166 15 0 0 0
2015 1 -34.44 134.9268 15 0 0 0
2016 1 -36.9 136.347 15 0 0 0
2017 1 -35.67 137.0572 15 0 0 0
2018 1 -38.13 138.4775 15 0 0 0
2019 1 -36.9 139.1876 15 0 0 0
2161 1 -33.21 134.2166 15 0 0 0
2163 1 -34.44 136.347 15 0 0 0
2164 1 -33.21 137.0572 15 0 0 0
2165 1 -35.67 138.4775 15 0 0 0
2166 1 -34.44 139.1876 15 0 0 0
2316 1 -33.21 138.4775 15 0 0 0
2162 1 -31.98 134.9268 15 0 0 0
2312 1 -30.75 134.2166 15 0 0 0
2313 1 -29.52 134.9268 15 0 0 0
2314 1 -31.98 136.347 15 0 0 0
2315 1 -30.75 137.0572 15 0 0 0
2317 1 -31.98 139.1876 15 0 0 0
2467 1 -28.29 134.2166 15 0 0 0
2468 1 -27.06 134.9268 15 0 0 0
2469 1 -29.52 136.347 15 0 0 0
2470 1 -28.29 137.0572 15 0 0 0
2471 1 -30.75 138.4775 15 0 0 0
2472 1 -29.52 139.1876 15 0 0 0
2626 1 -25.83 134.2166 15 0 0 0
2628 1 -27.06 136.347 15 0 0 0
2629 1 -25.83 137.0572 15 0 0 0
2630 1 -28.29 138.4775 15 0 0 0
2631 1 -27.06 139.1876 15 0 0 0
2793 1 -25.83 138.4775 15 0 0 0
2627 1 -24.6 134.9268 15 0 0 0
2789 1 -23.37 134.2166 15 0 0 0
2790 1 -22.14 134.9268 15 0 0 0
2791 1 -24.6 136.347 15 0 0 0
2792 1 -23.37 137.0572 15 0 0 0
2794 1 -24.6 139.1876 15 0 0 0
2956 1 -20.91 134.2166 15 0 0 0
2957 1 -19.68 134.9268 15 0 0 0
2958 1 -22.14 136.347 15 0 0 0
2959 1 -20.91 137.0572 15 0 0 0
2960 1 -23.37 138.4775 15 0 0 0
2961 1 -22.14 139.1876 15 0 0 0
3129 1 -19.68 136.347 15 0 0 0
3131 1 -20.91 138.4775 15 0 0 0
3132 1 -19.68 139.1876 15 0 0 0
1603 1 -46.74 140.6079 15 0 0 0
1605 1 -46.74 143.4484 15 0 0 0
1742 1 -46.74 144.8687 15 0 0 0
1604 1 -45.51 141.318 15 0 0 0
1738 1 -44.28 140.6079 15 0 0 0
1739 1 -43.05 141.318 15 0 0 0
1740 1 -45.51 142.7383 15 0 0 0
1741 1 -44.28 143.4484 15 0 0 0
1743 1 -45.51 145.5789 15 0 0 0
1877 1 -41.82 140.6079 15 0 0 0
1878 1 -40.59 141.318 15 0 0 0
1879 1 -43.05 142.7383 15 0 0 0
1880 1 -41.82 143.4484 15 0 0 0
1881 1 -44.28 144.8687 15 0 0 0
1882 1 -43.05 145.5789 15 0 0 0
2022 1 -40.59 142.7383 15 0 0 0
2024 1 -41.82 144.8687 15 0 0 0
2025 1 -40.59 145.5789 15 0 0 0
2020 1 -39.36 140.6079 15 0 0 0
2021 1 -38.13 141.318 15 0 0 0
2023 1 -39.36 143.4484 15 0 0 0
2167 1 -36.9 140.6079 15 0 0 0
2168 1 -35.67 141.318 15 0 0 0
2169 1 -38.13 142.7383 15 0 0 0
2170 1 -36.9 143.4484 15 0 0 0
2171 1 -39.36 144.8687 15 0 0 0
2172 1 -38.13 145.5789 15 0 0 0
2318 1 -34.44 140.6079 15 0 0 0
2319 1 -33.21 141.318 15 0 0 0
2320 1 -35.67 142.7383 15 0 0 0
2321 1 -34.44 143.4484 15 0 0 0
2322 1 -36.9 144.8687 15 0 0 0
2323 1 -35.67 145.5789 15 0 0 0
2475 1 -33.21 142.7383 15 0 0 0
2477 1 -34.44 144.8687 15 0 0 0
2478 1 -33.21 145.5789 15 0 0 0
2473 1 -31.98 140.6079 15 0 0 0
2474 1 -30.75 141.318 15 0 0 0
2476 1 -31.98 143.4484 15 0 0 0
2632 1 -29.52 140.6079 15 0 0 0
2633 1 -28.29 141.318 15 0 0 0
2634 1 -30.75 142.7383 15 0 0 0
2635 1 -29.52 143.4484 15 0 0 0
2636 1 -31.98 144.8687 15 0 0 0
2637 1 -30.75 145.5789 15 0 0 0
2795 1 -27.06 140.6079 15 0 0 0
2796 1 -25.83 141.318 15 0 0 0
2797 1 -28.29 142.7383 15 0 0 0
2798 1 -27.06 143.4484 15 0 0 0
2799 1 -29.52 144.8687 15 0 0 0
2800 1 -28.29 145.5789 15 0 0 0
2964 1 -25.83 142.7383 15 0 0 0
2966 1 -27.06 144.8687 15 0 0 0
2967 1 -25.83 145.5789 15 0 0 0
2962 1 -24.6 140.6079 15 0 0 0
2963 1 -23.37 141.318 15 0 0 0
2965 1 -24.6 143.4484 15 0 0 0
3133 1 -22.14 140.6079 15 0 0 0
3134 1 -20.91 141.318 15 0 0 0
3135 1 -23.37 142.7383 15 0 0 0
3136 1 -22.14 143.4484 15 0 0 0
3137 1 -24.6 144.8687 15 0 0 0
3138 1 -23.37 145.5789 15 0 0 0
3305 1 -19.68 140.6079 15 0 0 0
3307 1 -20.91 142.7383 15 0 0 0
3308 1 -19.68 143.4484 15 0 0 0
3309 1 -22.14 144.8687 15 0 0 0
3310 1 -20.91 145.5789 15 0 0 0
3481 1 -19.68 144.8687 15 0 0 0
1744 1 -46.74 147.7093 15 0 0 0