# LAMMPS data file written by OVITO Basic 3.12.2

103363 atoms
4 atom types

-40.1340021241 243.1674348179 xlo xhi
-6.8836823031 390.2873458122 ylo yhi
-40.1340021241 150.0 zlo zhi

Atoms  # atomic

255974 3 1.43174 21.3503 44.3021
255973 3 0.205011 20.7548 43.9906
284027 4 0.265247 19.9375 43.2569
255980 3 2.65641 20.8592 44.0
284030 4 2.7717 20.0259 43.3829
284057 4 24.0803 19.0051 44.2545
284060 4 26.8126 18.9981 44.0912
284524 4 -3.08616 20.5859 44.8276
255971 3 -0.998608 21.2384 44.4346
255970 3 -2.05165 20.3542 44.638
284525 4 -1.93052 19.2659 44.7431
256007 3 8.54051 20.7372 46.146
255992 3 6.12782 20.8798 45.5705
255981 3 3.81676 21.2659 44.6573
256006 3 7.31608 20.1241 45.6368
284036 4 7.27186 19.0183 45.3322
255991 3 4.90641 20.4342 45.0183
284033 4 4.8678 19.4205 44.6049
256076 3 15.8149 20.5983 46.5341
256026 3 10.9552 20.6694 46.4232
256048 3 12.1197 19.9179 46.567
256049 3 13.3513 20.5482 46.5947
256075 3 14.5984 19.8831 46.7427
284045 4 14.6761 18.8643 46.9958
256025 3 9.70643 20.0027 46.2631
284039 4 9.71497 18.9558 46.2816
284042 4 12.0865 18.839 46.7234
256181 3 22.9912 20.5731 45.415
256107 3 18.2012 20.646 45.9975
256180 3 21.7733 19.9553 45.3501
256142 3 20.6081 20.6106 45.6263
256141 3 19.3773 19.9918 45.5711
256106 3 16.9972 20.017 46.0215
284048 4 17.0752 18.9464 45.8549
284051 4 19.3 19.0283 45.0862
284054 4 21.7142 18.8875 44.9822
256224 3 25.4225 20.6116 44.978
256223 3 24.1632 19.9898 44.8407
256322 3 30.1901 20.5213 45.1116
256271 3 27.8117 20.4804 45.2147
256321 3 29.0314 19.7999 45.2148
256270 3 26.6462 19.9623 44.6344
284063 4 29.1318 18.784 45.3878
256499 3 37.436 20.3689 45.8227
256436 3 35.0126 20.3426 45.6906
256377 3 32.6477 20.4361 45.3775
256498 3 36.2427 19.7383 45.5114
256435 3 33.8343 19.773 45.2494
256376 3 31.4323 19.8201 45.103
284066 4 31.3715 18.7297 44.8803
284072 4 36.3025 18.8894 44.8605
284069 4 33.821 18.8857 44.6228
256792 3 44.6479 21.2132 47.7428
256712 3 44.6577 19.8177 47.425
256713 3 42.2142 21.2986 47.3736
256638 3 39.7961 21.4671 46.8546
256566 3 39.8259 20.1673 46.4225
256637 3 42.1952 19.9486 46.997
256711 3 43.3787 19.261 47.1175
256636 3 40.9728 19.3868 46.5428
284081 4 43.3418 18.1339 47.0043
256565 3 38.6225 19.6186 45.927
284075 4 38.728 18.7179 45.3382
284078 4 40.9807 18.3084 46.1798
257053 3 51.8977 21.0348 48.3387
256961 3 51.9195 19.6983 48.0802
256962 3 49.4709 21.1107 48.1086
256875 3 47.0783 21.1505 47.8777
256874 3 49.4272 19.7216 47.8582
256791 3 47.0851 19.7512 47.7136
256790 3 45.8653 19.1323 47.5474
256873 3 48.2425 19.053 47.7324
284084 4 45.8481 18.0201 47.6308
256960 3 50.6718 19.0021 47.9006
284090 4 50.7275 17.8356 47.7616
284087 4 48.2617 17.9629 47.8539
257246 3 58.9171 19.4071 50.057
257148 3 54.2812 20.9497 48.9377
257247 3 56.6527 20.8314 49.5197
257245 3 57.7933 18.7208 49.7118
284099 4 57.6239 17.6659 50.0099
257147 3 56.6113 19.4331 49.4256
257052 3 54.2741 19.5816 48.7236
257146 3 55.3834 18.8828 49.0364
284096 4 55.3857 17.8543 48.7181
284093 4 53.1596 17.9174 47.9393
257051 3 53.1026 18.9809 48.2332
257569 3 65.0362 21.3179 50.5633
257458 3 62.5962 21.3713 50.3899
257457 3 61.4162 20.7431 50.3315
257350 3 59.0442 20.8105 49.8708
257568 3 63.7757 20.644 50.5779
257566 3 64.989 18.5506 51.0706
284108 4 64.9364 17.4998 51.2357
257456 3 63.7282 19.2267 50.8042
257349 3 61.3388 19.3772 50.4595
257348 3 60.1318 18.7111 50.2559
257455 3 62.4223 18.6594 50.8434
284102 4 60.0974 17.6344 50.0918
284105 4 62.348 17.6379 51.1421
257926 3 72.3525 21.1522 50.6273
257684 3 67.4927 21.2684 50.7298
257803 3 69.9071 21.2627 50.6874
257925 3 71.1237 20.5353 50.7759
257683 3 66.2299 20.6035 50.84
257802 3 68.6992 20.5707 50.8903
257923 3 72.2534 18.4507 50.7272
284117 4 72.15 17.4318 50.3696
257801 3 71.082 19.1583 50.9934
257567 3 66.1684 19.2073 51.1441
257682 3 68.6545 19.2091 51.1791
257800 3 69.8652 18.5376 51.2742
257681 3 67.3919 18.5971 51.3381
258184 3 77.2039 21.1093 51.1182
258053 3 74.7565 21.1261 50.9518
258183 3 75.9897 20.4379 51.1081
258052 3 73.5316 20.4033 50.948
258318 3 78.409 20.366 51.1656
258316 3 79.5344 18.2862 51.3884
284126 4 79.5003 17.2486 51.1808
258182 3 78.3135 18.9278 51.3268
258051 3 75.9628 19.0359 51.1363
257924 3 73.5031 19.0383 50.8294
258050 3 74.6946 18.3916 51.0465
284120 4 74.6778 17.3233 51.1825
284129 4 81.9854 17.2675 51.2052
255997 3 1.3576 26.4704 46.6213
255985 3 1.34583 25.1628 46.1265
255982 3 1.37636 22.6121 44.9308
255999 3 0.146509 28.4418 47.3221
255988 3 -2.07186 28.1691 48.0458
255976 3 0.113884 23.2104 45.1683
255984 3 0.154618 24.526 45.8638
255987 3 0.172766 27.0811 47.0127
255979 3 -2.1731 26.9001 47.498
255978 3 -1.07716 25.208 46.0811
255986 3 -1.08108 26.3706 46.8632
284029 4 -3.10785 26.3328 47.6946
284028 4 -3.16329 25.1132 45.7055
255977 3 -2.19334 24.6048 45.5359
255975 3 -1.05688 22.5915 44.8493
284026 4 -3.08562 23.0615 44.3905
255972 3 -2.20211 23.3409 44.9165
256054 3 8.59117 26.2544 46.9798
256030 3 8.61873 24.8674 46.6858
256033 3 5.02828 28.4261 47.3139
256014 3 2.55355 28.5056 47.1436
256056 3 7.42753 28.365 47.4134
256032 3 7.41528 27.0279 46.9838
256029 3 7.36081 24.2708 46.3506
256009 3 7.3717 22.8573 46.1625
256013 3 5.01468 27.0959 46.9707
255998 3 2.57953 27.1319 46.8315
256031 3 6.18368 26.3669 46.7738
256011 3 6.17924 25.0138 46.4263
256012 3 3.81137 26.4564 46.6737
256008 3 6.16399 22.2424 45.9288
256010 3 5.00325 24.3702 46.116
255994 3 4.97355 23.0037 45.8295
255996 3 3.79121 25.0831 46.2409
255995 3 2.57783 24.5377 45.7939
255983 3 2.60387 23.2937 45.1969
256027 3 8.56234 22.119 46.2049
255993 3 3.79142 22.5089 45.2081
256147 3 15.8273 26.1483 46.9753
256111 3 15.8054 24.7584 46.7617
256149 3 14.666 28.1989 47.3587
256114 3 12.2571 28.2609 47.447
256083 3 9.79716 28.3046 47.5533
256113 3 14.6377 26.8169 47.2325
256110 3 14.582 24.0453 46.9282
256078 3 14.5619 22.6649 46.7051
256082 3 12.1854 26.8487 47.2748
256055 3 9.78127 26.9454 47.2135
256112 3 13.4129 26.1349 47.1887
256080 3 13.3522 24.7605 46.9538
256081 3 11.0024 26.2069 47.1416
256079 3 12.1607 24.0895 46.7154
256051 3 12.1867 22.6903 46.7146
256053 3 10.9817 24.8275 46.8345
256052 3 9.77071 24.1662 46.6793
256028 3 9.75833 22.7638 46.5805
256108 3 15.7925 22.0041 46.6122
256077 3 13.3429 21.9416 46.6742
256050 3 10.9443 22.0857 46.5589
256276 3 23.0703 26.1062 46.562
256228 3 23.0429 24.7403 46.326
256231 3 19.4793 28.1721 47.1145
256188 3 17.0619 28.2293 47.1072
256278 3 21.868 28.1337 47.1658
256230 3 21.8375 26.7765 46.7867
256227 3 21.8643 24.0047 46.3508
256183 3 21.8798 22.6445 46.0483
256187 3 19.4746 26.8286 46.8149
256148 3 17.0656 26.8554 46.9237
256229 3 20.641 26.0936 46.6417
256185 3 20.6395 24.7185 46.5079
256186 3 18.2404 26.1501 46.7614
256146 3 18.176 24.7675 46.6115
256184 3 19.3913 24.1033 46.2987
256144 3 19.4009 22.7344 46.0613
256145 3 16.9948 24.0642 46.5938
256109 3 16.9954 22.681 46.448
256225 3 23.068 21.8883 45.7957
256182 3 20.6431 22.0005 45.8616
256143 3 18.2055 22.0179 46.1422
256441 3 30.2369 25.9407 46.6038
256381 3 30.2053 24.5443 46.2947
256329 3 24.3183 28.0644 47.0034
256443 3 29.1112 27.9398 47.117
256384 3 26.6908 28.0217 47.045
256383 3 29.0871 26.5759 46.7558
256380 3 29.0402 23.9228 45.9463
256328 3 26.7295 26.659 46.6598
256277 3 24.3421 26.7308 46.6351
256382 3 27.8914 25.9497 46.476
256326 3 27.8487 24.599 46.1304
256327 3 25.5162 25.9873 46.4423
256325 3 26.6494 23.9199 46.0096
256275 3 25.4529 24.6087 46.1693
256273 3 26.649 22.5589 45.6778
256274 3 24.2106 23.9853 46.0758
256226 3 24.25 22.5803 45.8922
256272 3 25.428 21.8702 45.5954
256324 3 29.0024 22.5488 45.7075
256378 3 30.2392 21.8666 45.4856
256323 3 27.829 21.8498 45.5196
256645 3 37.4997 28.3109 48.2569
256642 3 37.47 25.6124 47.356
256570 3 37.4408 24.2454 47.1098
256574 3 35.1344 28.4682 47.5816
256507 3 32.6984 28.5605 47.4162
256644 3 36.2918 27.6959 47.7728
256573 3 33.9014 27.8124 47.2844
256506 3 31.5045 27.9115 47.1938
256572 3 36.289 26.3909 47.3194
256569 3 36.2127 23.6927 46.7305
256442 3 31.4938 26.5609 46.7665
256505 3 33.856 26.4586 47.0063
256571 3 35.0406 25.7318 47.004
256503 3 34.98 24.3747 46.779
256504 3 32.6669 25.8281 46.7004
256440 3 32.6167 24.4939 46.4113
256502 3 33.7744 23.7525 46.5012
256439 3 31.398 23.8962 46.1665
256567 3 37.394 21.6445 46.3933
256501 3 36.1707 22.2938 46.5416
256438 3 33.8433 22.3807 46.2172
256379 3 31.4292 22.5261 45.8251
256500 3 35.0223 21.5908 46.3067
256437 3 32.6195 21.7165 45.934
256882 3 44.7648 28.0362 48.7606
256879 3 44.6648 25.3096 48.368
256795 3 44.6642 23.95 48.1274
256799 3 42.2857 28.1565 48.7181
256720 3 39.8814 28.1679 48.5324
256881 3 43.5031 27.4051 48.6072
256797 3 43.4837 26.0323 48.2014
256794 3 43.4713 23.2664 47.8877
256719 3 38.674 27.5358 48.2941
256798 3 41.0848 27.4542 48.4747
256718 3 41.0921 26.0892 48.1756
256643 3 38.6377 26.164 47.8655
256796 3 42.2696 25.3852 47.9864
256716 3 42.2867 23.9854 47.7814
256717 3 39.8423 25.459 47.9741
256641 3 39.8511 24.0971 47.7025
256715 3 41.0235 23.3219 47.6472
256640 3 38.6289 23.5352 47.2709
256714 3 43.4341 21.8927 47.6706
256639 3 41.0186 22.0027 47.3434
256568 3 38.6096 22.1994 46.8184
257060 3 49.5661 27.9978 48.811
256969 3 47.1658 28.0586 48.7878
257154 3 50.7625 27.3161 48.8034
257058 3 50.7863 25.9127 48.6623
257055 3 50.7466 23.1854 48.4519
256968 3 45.9462 27.3505 48.7691
257059 3 48.3673 27.3395 48.5916
256967 3 48.3753 25.9676 48.4163
256880 3 45.9258 25.9532 48.5365
257057 3 49.5643 25.2339 48.5491
256965 3 49.5531 23.8197 48.5145
256966 3 47.1386 25.2754 48.387
256878 3 47.1124 23.8719 48.3774
256964 3 48.3135 23.2336 48.2406
256877 3 45.867 23.1987 48.1915
256876 3 48.2896 21.8306 48.0969
256793 3 45.8705 21.8394 47.9456
256963 3 50.7041 21.7348 48.3993
257357 3 56.7679 27.8101 49.8576
257254 3 54.3542 27.8283 49.6563
257155 3 52.0038 27.9394 49.0504
257463 3 57.9442 27.0725 49.9462
257355 3 57.9069 25.68 49.779
257352 3 57.846 22.9014 49.7803
257356 3 55.5296 27.1412 49.819
257253 3 53.1674 27.153 49.334
257252 3 55.5175 25.7405 49.6745
257153 3 53.1118 25.7897 49.3084
257354 3 56.6899 25.0189 49.7249
257250 3 56.6784 23.6298 49.7509
257152 3 51.9677 25.1647 48.8497
257251 3 54.3038 25.0602 49.502
257056 3 52.0084 23.8024 48.6811
257151 3 54.3068 23.7081 49.3143
257150 3 53.1454 23.0569 48.9184
257249 3 55.4821 22.9753 49.4693
257248 3 57.8505 21.518 49.7294
257054 3 53.0812 21.6695 48.7247
257149 3 55.4598 21.5612 49.3419
257464 3 59.1635 27.7341 50.0524
257690 3 64.0393 27.6162 50.165
257575 3 61.5735 27.7285 50.1283
257808 3 65.2121 26.866 50.3003
257688 3 65.1458 25.4554 50.4575
257685 3 65.0895 22.7341 50.4221
257689 3 62.7592 26.9919 50.2635
257574 3 60.3689 27.0178 49.9854
257573 3 62.7202 25.6196 50.4333
257462 3 60.3352 25.6707 49.9462
257461 3 59.1179 24.9565 49.777
257687 3 63.883 24.8558 50.4019
257572 3 61.4969 24.9705 50.157
257571 3 63.8613 23.4233 50.3126
257353 3 59.059 23.5432 49.8634
257460 3 61.4524 23.541 50.1658
257570 3 62.6166 22.7739 50.2533
257459 3 60.2301 22.8804 50.0749
257351 3 60.2187 21.4872 50.0607
257809 3 66.4225 27.5924 50.4815
258059 3 71.2911 27.4936 50.5657
257932 3 68.8997 27.4964 50.2273
258189 3 72.4582 26.7737 50.5271
258057 3 72.4202 25.3392 50.46
258054 3 72.3402 22.5451 50.3984
258058 3 70.07 26.8197 50.3988
257931 3 67.6326 26.871 50.397
257930 3 69.9738 25.4188 50.4328
257807 3 67.549 25.449 50.4708
258056 3 71.2086 24.6556 50.3214
257929 3 68.7711 24.7504 50.4146
257806 3 66.3786 24.7872 50.3852
257686 3 66.3284 23.3564 50.4668
257928 3 71.1264 23.284 50.3785
257805 3 68.7281 23.3939 50.376
257927 3 69.915 22.6139 50.3707
257804 3 67.5425 22.6946 50.4128
258606 3 79.683 26.6373 50.8953
258462 3 79.6537 25.2596 50.9014
258459 3 79.6066 22.4747 51.3289
258325 3 76.1348 27.4064 50.3739
258190 3 73.7049 27.4446 50.5272
258464 3 78.5055 27.3707 50.6596
258463 3 77.3038 26.6899 50.5399
258324 3 74.8813 26.7452 50.4559
258188 3 74.8471 25.3745 50.5719
258323 3 77.268 25.2444 50.6624
258187 3 73.6484 24.6264 50.5287
258461 3 78.4491 24.5496 50.8373
258322 3 76.0319 24.6005 50.7037
258055 3 73.5659 23.2505 50.586
258186 3 75.9842 23.184 50.8153
258321 3 78.4433 23.168 51.0876
258185 3 74.7613 22.512 50.8192
258320 3 77.2139 22.4702 50.9058
258607 3 80.9025 27.3234 51.1249
258753 3 82.1238 26.6331 51.3997
258604 3 80.8215 24.543 51.3428
256039 3 1.39528 34.6361 48.5388
256019 3 1.44289 33.2834 48.2401
256016 3 1.34483 30.5126 47.7794
256005 3 -2.13347 35.5464 48.1317
256021 3 0.206108 35.3378 48.5389
284035 4 -2.97474 35.149 47.5118
256018 3 0.188125 32.5627 48.1823
256002 3 0.188352 31.1707 48.0411
256020 3 -1.02917 34.7065 48.2844
256004 3 -1.0343 33.2834 48.2864
256001 3 -1.0593 30.4862 47.7864
284032 4 -3.20208 30.772 47.8363
284034 4 -3.17769 32.9475 48.7064
256003 3 -2.17861 32.538 48.3146
255990 3 -2.22561 31.2396 47.9354
256000 3 1.35374 29.1348 47.4628
255989 3 -1.04444 29.0761 47.7172
284031 4 -2.98142 28.5935 48.5506
256120 3 8.66706 34.4841 48.6595
256088 3 8.6672 33.1282 48.2715
256085 3 8.63505 30.4047 47.8158
256063 3 5.08746 35.2963 48.555
256040 3 2.62894 35.3386 48.47
256090 3 7.49187 35.1736 48.8287
256087 3 7.47696 32.4979 48.0732
256059 3 7.45783 31.1277 47.9506
256062 3 3.83283 34.6144 48.3678
256089 3 6.29441 34.5493 48.4196
256061 3 6.23592 33.1756 48.3553
256058 3 6.23252 30.4292 47.9198
256038 3 3.82492 33.2505 48.2412
256060 3 5.05475 32.4893 48.2902
256037 3 2.63989 32.5773 48.1416
256036 3 5.02804 31.1057 48.1437
256035 3 3.77408 30.4636 47.7983
256017 3 2.55389 31.2251 47.7171
256057 3 8.6571 29.0052 47.6582
256034 3 6.25438 29.0887 47.5815
256015 3 3.78858 29.1192 47.39
256237 3 15.972 34.3886 48.4956
256193 3 15.9168 33.0036 48.3826
256190 3 15.895 30.2757 47.7555
256121 3 9.88744 35.1162 48.8599
256195 3 14.7524 35.1193 48.6273
256156 3 12.3286 35.1455 48.6856
256192 3 14.7227 32.312 48.2909
256152 3 14.6977 30.9288 47.9978
256194 3 13.5079 34.469 48.5397
256155 3 11.0692 34.4616 48.5946
256154 3 13.5196 33.1057 48.407
256151 3 13.4805 30.2999 47.7726
256119 3 11.1272 33.0734 48.3021
256117 3 12.3148 31.0568 47.7808
256153 3 12.3126 32.4007 48.1571
256118 3 9.8977 32.4617 48.1403
256086 3 9.89057 31.0619 47.8893
256116 3 11.0592 30.3614 47.718
256150 3 15.8616 28.9154 47.427
256115 3 13.4808 28.946 47.3617
256084 3 11.036 28.951 47.6314
256390 3 23.2305 34.1813 48.6888
256334 3 23.1681 32.8801 48.2824
256331 3 23.1302 30.141 47.3869
256238 3 17.237 35.0649 48.6427
256285 3 19.6636 34.9633 48.7294
256336 3 22.0205 34.8971 48.8004
256333 3 21.9595 32.1935 47.9711
256281 3 21.9655 30.8791 47.5985
256284 3 18.4292 34.3222 48.5683
256335 3 20.8448 34.2346 48.6225
256283 3 20.8082 32.9226 48.1634
256280 3 20.728 30.2214 47.3945
256236 3 18.3535 32.9755 48.2163
256282 3 19.5844 32.3331 47.9313
256235 3 17.1234 32.3034 48.091
256234 3 19.5168 30.9522 47.6126
256191 3 17.0982 30.9804 47.6954
256233 3 18.3019 30.2786 47.5338
256279 3 23.1046 28.7292 47.2356
256232 3 20.6772 28.8709 47.1815
256189 3 18.2712 28.9298 47.2281
256579 3 30.4252 34.0597 48.6904
256511 3 30.3663 32.706 48.2883
256508 3 30.3289 30.002 47.4738
256513 3 29.2333 34.7737 48.8722
256510 3 29.1586 32.0815 48.0963
256446 3 29.1694 30.6557 47.8259
256450 3 26.7903 34.8193 48.7505
256391 3 24.4381 34.8316 48.8322
256512 3 28.009 34.1902 48.506
256449 3 25.5794 34.1479 48.6306
256448 3 27.9466 32.821 48.2738
256445 3 27.9152 29.9949 47.5757
256389 3 25.5797 32.7972 48.2222
256447 3 26.7467 32.0866 48.156
256388 3 24.346 32.1609 47.9008
256387 3 26.7457 30.7434 47.7285
256332 3 24.3563 30.8294 47.4781
256386 3 25.5435 30.1502 47.4247
256444 3 30.2882 28.6645 47.0957
256385 3 27.9052 28.6603 47.2165
256330 3 25.5182 28.7492 47.1075
256804 3 37.6749 33.7817 49.0849
256724 3 37.6179 32.4113 48.7263
256721 3 37.468 29.6417 48.6493
256726 3 36.5116 34.5022 49.2387
256723 3 36.412 31.7742 48.5541
256647 3 36.3356 30.388 48.2774
256651 3 34.0334 34.5837 49.1027
256580 3 31.6415 34.6735 48.9546
256725 3 35.2149 33.8715 48.9738
256650 3 32.8382 33.96 48.74
256649 3 35.2127 32.5079 48.6547
256646 3 35.0811 29.7999 47.9377
256578 3 32.758 32.5628 48.487
256577 3 31.5299 31.9946 48.1577
256648 3 33.969 31.8325 48.4234
256576 3 33.9305 30.5019 48.0179
256509 3 31.5133 30.6298 47.694
256575 3 32.7313 29.9443 47.6474
256975 3 43.7635 34.3534 49.2758
256972 3 43.6301 31.622 49.0377
256884 3 43.5325 30.243 48.8683
256888 3 41.3107 34.3669 49.2791
256805 3 38.9081 34.4525 49.2092
256974 3 42.53 33.6925 49.1438
256887 3 40.1031 33.6926 49.0835
256886 3 42.4285 32.3159 49.0663
256803 3 40.0306 32.3031 49.04
256885 3 41.2624 31.6487 48.9777
256802 3 38.7983 31.6457 48.7584
256801 3 41.1603 30.2898 48.8209
256722 3 38.7345 30.3137 48.7836
256800 3 39.8977 29.5729 48.7528
256970 3 44.7591 29.5094 48.7492
256883 3 42.3351 29.526 48.8329
257364 3 50.983 35.5694 49.7642
257261 3 48.5989 35.6237 49.8435
257260 3 51.0128 34.2008 49.616
257257 3 50.8944 31.432 49.3674
257157 3 50.7965 30.0109 49.2427
257161 3 48.5966 34.2793 49.5756
257066 3 46.1357 34.3103 49.4133
257160 3 47.3408 33.582 49.3926
257065 3 44.942 33.6317 49.2361
257259 3 49.7605 33.5267 49.5851
257159 3 49.6844 32.1713 49.406
256973 3 44.8693 32.2397 49.1233
257064 3 47.3148 32.2022 49.1867
257063 3 46.0656 31.5309 49.1165
257158 3 48.4792 31.4573 49.292
257062 3 48.4038 30.1142 49.0793
256971 3 45.9653 30.134 48.9211
257156 3 49.5976 29.3829 48.9612
257061 3 47.1676 29.4415 48.9408
257471 3 53.4199 35.566 49.7623
257697 3 58.1726 35.4934 50.4664
257582 3 55.7892 35.5212 50.1293
257581 3 58.164 34.0774 50.4923
257578 3 58.0682 31.2755 50.2624
257466 3 58.0279 29.8292 49.9182
257470 3 55.8005 34.1252 50.0259
257363 3 53.3747 34.1495 49.7881
257362 3 52.2174 33.4581 49.4995
257580 3 56.9309 33.381 50.2116
257469 3 54.5797 33.463 49.9799
257468 3 56.8904 31.9843 50.0726
257258 3 52.1078 32.0792 49.5425
257361 3 54.507 32.0612 49.7832
257467 3 55.6841 31.2859 49.8449
257360 3 53.2884 31.3399 49.5996
257359 3 55.6148 29.9323 49.8028
257256 3 53.271 29.9693 49.4545
257358 3 54.4387 29.259 49.5006
257255 3 51.9956 29.3416 49.2898
257465 3 56.8111 29.2016 49.8529
258066 3 65.4346 35.3271 50.4589
257939 3 63.0428 35.3324 50.7884
257816 3 60.6035 35.3423 50.6673
257935 3 65.2903 31.0864 50.1902
257938 3 65.328 33.9265 50.3124
257811 3 65.3013 29.7184 50.1925
257815 3 62.964 33.9148 50.4924
257696 3 60.5668 33.9587 50.6166
257937 3 64.1398 33.2236 50.299
257814 3 61.7686 33.2649 50.479
257695 3 59.3544 33.3465 50.4867
257813 3 64.1197 31.8665 50.1823
257579 3 59.272 31.9481 50.3501
257694 3 61.6591 31.8569 50.3545
257812 3 62.9063 31.1703 50.2684
257693 3 60.4419 31.2124 50.2061
257692 3 62.8709 29.7323 50.1585
257577 3 60.4361 29.8081 50.0618
257810 3 64.0875 28.9952 50.1421
257576 3 59.181 29.114 50.1001
257691 3 61.6274 29.1131 50.0711
258332 3 70.2794 35.212 50.1551
258197 3 67.8164 35.2302 50.4163
258471 3 72.6643 35.1218 49.8964
258331 3 72.5855 33.6967 49.9037
258328 3 72.58 30.9217 50.1702
258192 3 72.5381 29.5599 50.3508
258065 3 67.7837 33.8391 50.3954
258196 3 70.1803 33.8322 50.1314
258330 3 71.3682 33.0428 49.9786
258064 3 66.5373 33.1662 50.2775
258195 3 68.9701 33.0795 50.2971
258194 3 71.3717 31.6529 50.05
257936 3 66.5003 31.7356 50.0877
258063 3 68.9182 31.689 50.1877
258193 3 70.1471 30.9465 50.2716
258062 3 67.7181 31.0219 50.1641
257934 3 67.6805 29.6326 50.176
258061 3 70.1259 29.5564 50.2607
258191 3 71.3198 28.8986 50.4708
258060 3 68.8882 28.9096 50.1636
257933 3 66.4433 28.9685 50.3378
258760 3 79.8666 33.5899 50.5074
258762 3 78.6982 35.6563 50.2688
258912 3 79.9151 34.9858 50.3126
258614 3 75.0845 35.1241 49.9188
258761 3 77.452 35.046 50.3356
258757 3 79.801 30.8194 50.7855
258613 3 77.4567 33.6601 50.3375
258470 3 75.045 33.7179 49.9566
258759 3 78.6498 32.9514 50.3329
258469 3 73.8127 33.0454 49.9066
258612 3 76.2431 32.9554 50.1184
258611 3 78.6018 31.5293 50.5235
258468 3 76.201 31.6224 50.3086
258329 3 73.7962 31.6337 50.0996
258467 3 75.0154 30.9403 50.3318
258610 3 77.4258 30.9007 50.4177
258327 3 74.9288 29.4864 50.488
258609 3 79.7557 29.4577 50.9391
258466 3 77.4034 29.4946 50.4688
258608 3 78.5761 28.7199 50.6755
258465 3 76.156 28.7699 50.334
258326 3 73.718 28.8345 50.4708
259227 3 85.9459 35.5373 50.6549
259068 3 83.5226 35.5659 50.4885
259389 3 87.1361 34.8341 50.8727
259225 3 87.1082 33.4477 51.1245
259067 3 82.2715 34.8759 50.5235
259226 3 84.6998 34.8072 50.5664
259066 3 84.7119 33.4941 50.9383
258911 3 82.2859 33.5586 50.865
258910 3 81.0839 32.8594 50.8299
259065 3 83.4662 32.8404 51.0637
259224 3 85.8895 32.7939 51.1266
259064 3 85.8661 31.3828 51.2947
258909 3 83.4902 31.4286 51.1794
258758 3 80.9905 31.4713 51.0704
258908 3 82.2169 30.778 51.0297
259063 3 84.6724 30.6697 51.3241
258756 3 82.2035 29.363 51.2067
258755 3 80.9652 28.7177 51.0483
259728 3 93.1913 35.4224 51.3522
259390 3 88.3762 35.5255 50.8737
259557 3 90.76 35.4758 51.045
259727 3 91.9648 34.7572 51.4056
259556 3 89.5669 34.7435 50.9203
259388 3 89.5736 33.3751 51.1703
259555 3 91.9513 33.3753 51.3935
259387 3 88.307 32.7304 51.2575
256069 3 1.51968 41.4334 50.0966
256066 3 1.49857 38.7858 49.2511
256042 3 1.42972 37.4087 48.9136
256068 3 0.294552 40.8455 49.7971
256044 3 0.322843 39.4982 49.4884
256046 3 -0.893919 41.5228 50.1148
284040 4 -2.96376 41.2932 50.7039
256043 3 -0.894475 38.799 49.6129
256023 3 -0.977354 37.4648 48.9877
256045 3 -2.04384 40.8222 50.3738
256024 3 -1.98636 39.4133 50.3512
284038 4 -2.89436 38.7588 50.5713
284037 4 -2.99824 37.5341 48.4204
256022 3 -2.13968 36.9251 48.4983
256041 3 0.185196 36.6999 48.911
256162 3 8.79868 41.4034 49.6802
256159 3 8.76543 38.6529 49.5466
256123 3 8.71451 37.2531 49.3083
256161 3 7.57954 40.7306 49.6667
256125 3 7.54643 39.3356 49.4931
256096 3 3.95401 41.4469 49.9108
256127 3 6.38013 41.4708 49.6614
256124 3 6.30397 38.6686 49.3901
256092 3 6.30207 37.2977 49.0043
256126 3 5.18835 40.7556 49.7282
256095 3 2.71241 40.7866 49.7192
256094 3 5.10442 39.3788 49.5122
256067 3 2.72006 39.4592 49.3182
256093 3 3.89864 38.6826 49.2801
256065 3 3.87759 37.3222 48.9593
256122 3 7.54339 36.5506 49.061
256091 3 5.10318 36.6351 48.8474
256064 3 2.66121 36.6908 48.7717
256343 3 16.0903 42.7439 49.8068
256291 3 16.0256 41.3198 49.5099
256288 3 16.0012 38.5274 49.1266
256240 3 16.0054 37.1052 49.0218
256292 3 13.6632 42.7539 49.7029
256245 3 11.2689 42.7485 49.7823
256290 3 14.8286 40.6859 49.284
256242 3 14.7997 39.2691 49.1799
256201 3 11.2059 41.3671 49.705
256244 3 13.6297 41.3772 49.5342
256241 3 13.5989 38.5585 49.1415
256197 3 13.5747 37.2021 49.0971
256243 3 12.4216 40.6553 49.6092
256200 3 10.0038 40.6985 49.7053
256199 3 12.4067 39.2473 49.4462
256160 3 9.97452 39.3206 49.4882
256198 3 11.1526 38.5281 49.4239
256158 3 11.1359 37.159 49.2828
256239 3 14.7729 36.5245 48.9022
256196 3 12.3434 36.5172 49.0017
256157 3 9.91032 36.4628 49.2206
256520 3 23.343 42.4095 50.3653
256456 3 23.3243 41.0306 50.1441
256453 3 23.2707 38.2912 49.611
256393 3 23.2213 36.9398 49.2504
256457 3 20.9226 42.4982 50.3595
256398 3 18.4942 42.5789 49.9304
256455 3 22.1066 40.3761 49.8761
256395 3 22.0418 39.052 49.6004
256397 3 20.9224 41.1568 50.0237
256342 3 18.4775 41.1933 49.8068
256394 3 20.8389 38.3715 49.4735
256338 3 20.8608 37.0085 49.2322
256396 3 19.7123 40.4765 49.749
256341 3 17.2141 40.567 49.6109
256340 3 19.6703 39.0831 49.5949
256289 3 17.2468 39.2217 49.255
256339 3 18.4488 38.5007 49.2548
256287 3 18.3952 37.066 49.0432
256392 3 22.0262 36.2346 49.1435
256337 3 19.6049 36.374 48.937
256286 3 17.2133 36.3922 48.8277
256733 3 30.5625 42.2029 50.8182
256657 3 30.5111 40.8328 50.4734
256654 3 30.5173 38.1341 49.8348
256587 3 25.7675 42.32 50.6302
256584 3 29.2878 38.7999 50.0153
256658 3 28.1889 42.2588 50.8153
256656 3 29.2751 40.1795 50.4508
256519 3 25.7366 40.9323 50.3386
256586 3 28.1274 40.8742 50.5661
256583 3 28.0546 38.1455 49.8611
256515 3 28.0336 36.7997 49.404
256585 3 26.8827 40.2129 50.3743
256518 3 24.5429 40.2851 50.0976
256517 3 26.8889 38.9039 50.0238
256454 3 24.4566 38.9195 49.9225
256516 3 25.6578 38.2335 49.7419
256452 3 25.6051 36.8971 49.4016
256582 3 30.4984 36.7892 49.4721
256581 3 29.2388 36.1046 49.3686
256514 3 26.8044 36.1512 49.1713
256451 3 24.4236 36.2349 49.0952
256891 3 37.6986 37.8543 50.1128
256896 3 36.6718 42.7471 50.9633
256895 3 35.4334 42.0754 50.9361
256812 3 33.0482 42.0767 50.9033
256893 3 36.5655 39.9291 50.5561
256809 3 36.4996 38.5637 50.3075
256811 3 35.3863 40.6938 50.6666
256732 3 32.9855 40.7547 50.4472
256808 3 35.3335 37.8768 50.2187
256731 3 31.7097 40.1247 50.3223
256810 3 34.1716 40.0237 50.432
256730 3 34.1676 38.647 50.3063
256655 3 31.753 38.8033 49.957
256729 3 32.9281 38.0724 49.9047
256807 3 37.6908 36.5273 49.742
256728 3 35.2795 36.5296 49.7794
256653 3 32.8779 36.6949 49.5451
256806 3 36.4881 35.863 49.5148
256727 3 34.0235 35.97 49.4884
256652 3 31.658 36.0427 49.3304
257169 3 43.878 42.7149 50.5329
257074 3 41.4201 42.7456 50.6113
256983 3 39.0642 42.6851 50.8354
257166 3 43.8493 39.9128 50.0924
257070 3 43.7917 38.5034 49.9508
257073 3 40.2501 42.01 50.6645
256982 3 37.8209 42.0232 50.7748
257168 3 42.6258 42.0857 50.4062
256894 3 37.797 40.6263 50.5477
257072 3 42.6551 40.6558 50.2233
256981 3 40.2152 40.6273 50.4606
257069 3 42.5656 37.8497 49.8533
256980 3 38.9856 39.9636 50.4595
257071 3 41.4063 39.9797 50.263
256979 3 41.4017 38.5805 50.0035
256892 3 38.9066 38.5847 50.1183
256978 3 40.1343 37.9136 49.9983
257067 3 43.7253 35.7226 49.4463
256977 3 42.5686 36.4379 49.6592
256976 3 41.3343 35.7618 49.5481
256890 3 40.1194 36.5247 49.7053
256889 3 38.8784 35.8651 49.5005
257371 3 48.6915 42.5756 50.4454
257268 3 46.3002 42.6158 50.4712
257478 3 51.1086 42.5491 50.582
257475 3 51.0384 39.7687 50.342
257367 3 51.0134 38.3649 50.3578
257370 3 47.4875 41.9051 50.3277
257267 3 45.0755 41.9452 50.4402
257477 3 49.8909 41.8567 50.5276
257369 3 49.8431 40.4603 50.3582
257266 3 47.4493 40.533 50.0684
257167 3 45.0594 40.5628 50.1763
257366 3 49.7684 37.6807 50.0845
257368 3 48.6403 39.8325 50.0276
257265 3 46.2356 39.8135 50.0671
257264 3 48.6137 38.4195 50.0048
257165 3 46.1754 38.4165 50.0711
257263 3 47.384 37.7417 50.0113
257164 3 44.9727 37.7046 49.9317
257262 3 49.8212 36.2996 49.9341
257163 3 47.384 36.3754 49.8068
257068 3 44.938 36.3922 49.5151
257162 3 46.1612 35.6914 49.5612
257823 3 58.3288 42.3679 50.6063
257704 3 55.9331 42.4413 50.4229
257589 3 53.5144 42.4805 50.5524
257820 3 58.2919 39.6238 50.3218
257700 3 58.2187 38.1993 50.3603
257822 3 57.1214 41.7338 50.6049
257703 3 54.7519 41.7814 50.3642
257588 3 52.3007 41.8441 50.6251
257587 3 54.7622 40.3801 50.3172
257476 3 52.2816 40.4428 50.4073
257702 3 57.1469 40.3743 50.2376
257699 3 56.9907 37.5871 50.2824
257586 3 53.5097 39.7273 50.3576
257701 3 55.9291 39.73 50.0428
257585 3 55.8268 38.3151 50.0064
257474 3 53.4335 38.3631 50.0808
257584 3 54.6183 37.6793 49.8751
257473 3 52.2419 37.6616 50.1682
257583 3 57.0004 36.2034 50.2666
257472 3 54.6805 36.2562 49.8567
257365 3 52.2463 36.3079 49.8981
258204 3 65.5634 42.2935 51.0705
258073 3 63.1604 42.3025 51.1535
257946 3 60.7246 42.3463 50.9265
258201 3 65.5015 39.4726 50.8858
258069 3 65.4711 38.0862 50.8619
257945 3 59.5389 41.6489 50.6455
258203 3 64.3272 41.5551 51.1051
258072 3 61.917 41.6365 51.0008
257821 3 59.492 40.2964 50.5958
258071 3 64.2978 40.1623 50.982
257944 3 61.8862 40.2312 50.8815
258070 3 63.0703 39.5076 50.9141
257943 3 60.6594 39.5843 50.6845
258068 3 64.2456 37.4054 50.8373
257942 3 63.0232 38.1301 50.8813
257819 3 60.6405 38.185 50.7751
257818 3 59.4032 37.5091 50.5583
257941 3 61.7943 37.438 50.8329
257940 3 64.2704 36.0258 50.6194
257698 3 59.4267 36.1007 50.6428
257817 3 61.824 36.0144 50.8592
258621 3 72.802 42.151 50.0208
258618 3 72.6902 39.3952 49.9461
258474 3 72.711 37.9902 49.9983
258339 3 68.013 42.2369 50.9483
258478 3 70.44 42.2073 50.5588
258477 3 69.2088 41.4751 50.6823
258338 3 66.7738 41.5467 51.0669
258620 3 71.6121 41.4454 50.3172
258476 3 71.4956 40.0333 50.2442
258337 3 69.1416 40.0834 50.5603
258202 3 66.7363 40.1346 50.8884
258475 3 70.2809 39.39 50.3822
258336 3 67.9032 39.4332 50.6763
258473 3 71.4842 37.2985 50.0448
258200 3 67.9176 38.0679 50.6918
258335 3 70.3111 37.9802 50.4262
258334 3 69.0676 37.2925 50.4923
258199 3 66.6795 37.3672 50.798
258333 3 71.4488 35.9137 50.0946
258198 3 69.0283 35.8974 50.3312
258067 3 66.6514 35.9817 50.5689
259074 3 79.915 41.985 50.6049
259071 3 79.8668 39.1765 50.4417
258915 3 79.9364 37.7739 50.3502
258768 3 75.2429 42.1078 49.853
258919 3 77.5701 42.0208 50.2082
259073 3 78.7111 41.2898 50.4254
258918 3 76.3769 41.321 50.0199
258767 3 74.006 41.4663 49.8026
258917 3 78.6653 39.8843 50.499
258766 3 76.3198 39.9488 50.0639
258619 3 73.9397 40.0719 49.7642
258765 3 75.1222 39.3467 49.8256
258916 3 77.483 39.2221 50.2809
258914 3 78.7155 37.0745 50.2845
258764 3 77.5404 37.8368 50.0917
258617 3 75.1071 37.895 49.8235
258763 3 76.3421 37.1762 49.9333
258616 3 73.8484 37.2382 49.8455
258615 3 76.33 35.7912 49.9875
258472 3 73.8437 35.8151 49.7679
259563 3 87.2058 41.8097 50.7113
259560 3 87.2404 39.0553 50.6333
259392 3 87.2325 37.6372 50.6953
259396 3 84.814 41.8722 50.519
259233 3 82.4248 41.9456 50.6057
259232 3 81.1667 41.2557 50.5172
259562 3 86.0243 41.1528 50.5767
259395 3 83.6051 41.2199 50.5945
259394 3 85.9888 39.7252 50.4825
259231 3 83.5893 39.8563 50.5117
259072 3 81.0823 39.8608 50.5205
259393 3 84.7549 39.0571 50.5156
259230 3 82.3264 39.162 50.4857
259391 3 85.9816 36.9656 50.4892
259229 3 84.7719 37.6717 50.4884
259070 3 82.3447 37.7614 50.3921
259228 3 83.5564 36.9728 50.4211
259069 3 81.1073 37.0805 50.3232
258913 3 81.1335 35.6736 50.2836
259909 3 92.0644 41.7316 51.0621
259734 3 89.662 41.7496 50.9567
260087 3 93.2433 41.072 51.2731
259908 3 90.8847 41.0219 50.9691
259733 3 88.4273 41.1081 50.9516
259732 3 90.8694 39.6491 51.1462
259561 3 88.455 39.7385 50.9145
259907 3 93.2499 39.6804 51.2551
259906 3 92.0542 38.9435 51.2739
259731 3 89.6456 39.0492 50.9443
259904 3 93.2652 36.8035 51.2353
259730 3 92.0632 37.5411 51.1928
259559 3 89.6263 37.5834 51.0529