LAMMPS Description

       51198 atoms
       34132 bonds
       17066 angles

           2 atom types
           1 bond types
           1 angle types

    -40.0000      40.0000 xlo xhi
    -40.0000      40.0000 ylo yhi
    -40.0000      40.0000 zlo zhi

Masses

 1 15.9994
 2 1.008

Pair Coeffs

 1 0.15535 3.166
 2 0.0 0.0

Bond Coeffs

 1 1000.0 1.0

Angle Coeffs

 1 100.0 109.47

Atoms

1 1 1 -0.8476 -14.372502 37.659102 27.224183
2 1 2 0.4238 -14.945948 36.920248 27.427861
3 1 2 0.4238 -13.534554 37.431057 27.628303
4 2 1 -0.8476 21.352084 -24.553373 27.893997
5 2 2 0.4238 21.277283 -23.915147 28.603437
6 2 2 0.4238 21.271649 -24.033182 27.093744
7 3 1 -0.8476 27.213588 -10.796836 32.268877
8 3 2 0.4238 27.754854 -11.431227 31.798970
9 3 2 0.4238 27.830635 -10.320689 32.825664
10 4 1 -0.8476 -1.797574 9.417169 33.806890
11 4 2 0.4238 -2.479496 8.816703 34.107981
12 4 2 0.4238 -1.953579 9.505074 32.865929
13 5 1 -0.8476 -33.516723 -32.481548 -22.077429
14 5 2 0.4238 -34.287589 -31.921439 -22.168404
15 5 2 0.4238 -33.871796 -33.367777 -22.000001
16 6 1 -0.8476 16.079191 14.212495 34.978689
17 6 2 0.4238 15.409395 14.874884 34.808853
18 6 2 0.4238 15.588353 13.397120 35.086922
19 7 1 -0.8476 -6.857576 -5.400289 15.966580
20 7 2 0.4238 -7.273336 -4.622473 15.594588
21 7 2 0.4238 -6.229621 -5.679140 15.299206
22 8 1 -0.8476 -3.529639 -35.788176 17.771819
23 8 2 0.4238 -4.467972 -35.629623 17.668749
24 8 2 0.4238 -3.115606 -34.973786 17.484038
25 9 1 -0.8476 -3.410497 -32.238251 -21.946983
26 9 2 0.4238 -2.583326 -31.756567 -21.947437
27 9 2 0.4238 -4.084520 -31.557688 -21.947641
28 10 1 -0.8476 -27.849728 13.683268 -23.568387
29 10 2 0.4238 -27.694162 14.089276 -24.421140
30 10 2 0.4238 -27.021664 13.252732 -23.352929
31 11 1 -0.8476 -37.112941 37.962830 -7.764230
32 11 2 0.4238 -36.398490 37.420856 -7.429482
33 11 2 0.4238 -36.920672 38.842266 -7.436971
34 12 1 -0.8476 -33.921758 -33.502444 -32.917118
35 12 2 0.4238 -34.405370 -32.678638 -32.977912
36 12 2 0.4238 -33.003588 -33.237482 -32.852067
37 13 1 -0.8476 17.283510 -38.613047 -31.893482
38 13 2 0.4238 17.085140 -39.101385 -32.692485
39 13 2 0.4238 17.082737 -37.702483 -32.112655
40 14 1 -0.8476 -12.640958 -24.116178 -8.106017
41 14 2 0.4238 -12.022063 -24.109190 -7.375844
42 14 2 0.4238 -12.212627 -24.646877 -8.778597
43 15 1 -0.8476 13.906394 37.996660 22.736704
44 15 2 0.4238 14.333215 38.811968 22.473402
45 15 2 0.4238 14.588889 37.505898 23.195861
46 16 1 -0.8476 -37.096013 -36.813830 -3.990261
47 16 2 0.4238 -36.245130 -36.990536 -4.391514
48 16 2 0.4238 -37.709885 -36.800434 -4.725418
49 17 1 -0.8476 3.330824 -13.433144 -17.483636
50 17 2 0.4238 3.279472 -14.336527 -17.795876
51 17 2 0.4238 3.519859 -13.512985 -16.548026
52 18 1 -0.8476 -26.428160 18.935407 -13.676579
53 18 2 0.4238 -27.007723 18.174798 -13.634003
54 18 2 0.4238 -26.787949 19.471986 -14.383763
55 19 1 -0.8476 -25.153659 -20.928522 -27.433593
56 19 2 0.4238 -26.014046 -21.080869 -27.824433
57 19 2 0.4238 -24.621758 -21.668599 -27.728284
58 20 1 -0.8476 33.465050 4.213794 14.237047
59 20 2 0.4238 33.942443 4.926527 13.812384
60 20 2 0.4238 32.651725 4.617757 14.541660
61 21 1 -0.8476 -9.414347 19.366075 14.990171
62 21 2 0.4238 -8.600038 19.016394 14.628431
63 21 2 0.4238 -9.530702 20.208328 14.549097
64 22 1 -0.8476 27.366210 -12.598399 13.949562
65 22 2 0.4238 28.232291 -12.665709 13.547563
66 22 2 0.4238 26.836938 -13.251212 13.490019
67 23 1 -0.8476 -6.639391 -0.579484 12.603536
68 23 2 0.4238 -7.314202 -0.097279 12.125686
69 23 2 0.4238 -7.103711 -1.322946 12.989729
70 24 1 -0.8476 36.171606 29.649396 36.610240
71 24 2 0.4238 37.104938 29.860294 36.635632
72 24 2 0.4238 36.142899 28.693326 36.559466
73 25 1 -0.8476 33.533878 -5.988941 12.832674
74 25 2 0.4238 34.316252 -6.483320 12.588314
75 25 2 0.4238 33.811301 -5.072510 12.806891
76 26 1 -0.8476 30.396493 -21.236397 17.144554
77 26 2 0.4238 29.811228 -20.838582 17.789101
78 26 2 0.4238 30.650696 -20.511931 16.571838
79 27 1 -0.8476 7.072927 9.285353 0.300448
80 27 2 0.4238 7.830319 9.867809 0.242691
81 27 2 0.4238 7.417430 8.420599 0.074635
82 28 1 -0.8476 -21.274477 -36.101045 21.741804
83 28 2 0.4238 -20.485844 -35.780147 21.304409
84 28 2 0.4238 -21.991145 -35.617179 21.329816
85 29 1 -0.8476 16.629632 14.289224 -9.234932
86 29 2 0.4238 17.483255 14.182050 -9.654543
87 29 2 0.4238 16.667940 15.156978 -8.831189
88 30 1 -0.8476 -8.179833 -7.150216 -15.330952
89 30 2 0.4238 -8.250487 -8.092137 -15.175954
90 30 2 0.4238 -7.276315 -7.021996 -15.621965
91 31 1 -0.8476 0.808434 -8.199260 31.565870
92 31 2 0.4238 -0.129574 -8.270147 31.742922
93 31 2 0.4238 0.903215 -7.365222 31.104491
94 32 1 -0.8476 20.241093 -34.543903 -36.644777
95 32 2 0.4238 21.143223 -34.770953 -36.870258
96 32 2 0.4238 19.742648 -34.719206 -37.443711
97 33 1 -0.8476 -22.237428 31.299671 15.812460
98 33 2 0.4238 -22.113133 30.675521 16.527456
99 33 2 0.4238 -22.575650 32.088179 16.238296
100 34 1 -0.8476 5.051386 -16.978665 -2.099706
101 34 2 0.4238 4.368413 -16.652785 -2.685865
102 34 2 0.4238 5.735355 -16.308894 -2.132380
103 35 1 -0.8476 28.950409 -2.080117 36.194280
104 35 2 0.4238 29.631432 -1.543350 35.788914
105 35 2 0.4238 28.742056 -1.626402 37.011718
106 36 1 -0.8476 -7.434721 26.881017 29.194350
107 36 2 0.4238 -6.922187 27.640314 28.916845
108 36 2 0.4238 -6.832837 26.370598 29.737194
109 37 1 -0.8476 -3.071139 2.028225 16.155648
110 37 2 0.4238 -3.021391 1.499155 15.359506
111 37 2 0.4238 -2.761995 1.445896 16.850484
112 38 1 -0.8476 38.705652 -10.262339 -23.715409
113 38 2 0.4238 37.833431 -10.394462 -23.343917
114 38 2 0.4238 38.957344 -9.383268 -23.430177
115 39 1 -0.8476 -9.624005 20.887915 16.736117
116 39 2 0.4238 -9.926813 20.190330 17.317422
117 39 2 0.4238 -9.674905 21.682731 17.268235
118 40 1 -0.8476 37.581968 5.271035 37.503163
119 40 2 0.4238 37.591862 4.540659 36.884547
120 40 2 0.4238 38.237591 5.881545 37.164181
121 41 1 -0.8476 12.619557 -10.574975 33.885057
122 41 2 0.4238 12.086656 -10.022602 33.313102
123 41 2 0.4238 12.788977 -10.030496 34.654675
124 42 1 -0.8476 10.696579 -15.975770 16.028852
125 42 2 0.4238 9.904451 -16.154313 16.535693
126 42 2 0.4238 11.279470 -15.529213 16.643912
127 43 1 -0.8476 31.800628 -31.122895 37.395401
128 43 2 0.4238 32.565641 -31.540786 37.790816
129 43 2 0.4238 31.382914 -30.653695 38.118478
130 44 1 -0.8476 15.665984 -13.623933 5.403983
131 44 2 0.4238 16.316241 -14.324893 5.449301
132 44 2 0.4238 14.837438 -14.050520 5.625362
133 45 1 -0.8476 -38.273428 8.531487 -39.514034
134 45 2 0.4238 -38.916102 9.240717 -39.527937
135 45 2 0.4238 -37.465851 8.945394 -39.207484
136 46 1 -0.8476 -17.032912 -21.387996 28.852476
137 46 2 0.4238 -16.737062 -21.621263 29.732414
138 46 2 0.4238 -17.224513 -20.450936 28.904246
139 47 1 -0.8476 35.991226 -21.670035 15.798362
140 47 2 0.4238 36.825815 -22.132757 15.723648
141 47 2 0.4238 35.347817 -22.360492 15.961966
142 48 1 -0.8476 37.660381 -34.420175 -1.062148
143 48 2 0.4238 37.914280 -33.508343 -1.204728
144 48 2 0.4238 38.356255 -34.930809 -1.477461
145 49 1 -0.8476 19.406496 -33.283005 28.097524
146 49 2 0.4238 18.673574 -33.870331 28.282202
147 49 2 0.4238 19.005363 -32.526022 27.669106
148 50 1 -0.8476 22.953586 13.414872 34.794910
149 50 2 0.4238 22.310138 14.120341 34.727672
150 50 2 0.4238 22.445019 12.651753 35.071465
151 51 1 -0.8476 -6.639531 -26.130017 36.152237
152 51 2 0.4238 -7.055362 -26.160985 37.013839
153 51 2 0.4238 -6.604002 -27.044618 35.869896
154 52 1 -0.8476 5.530348 -23.053093 37.276111
155 52 2 0.4238 4.573856 -23.065510 37.241448
156 52 2 0.4238 5.783386 -23.976591 37.251698
157 53 1 -0.8476 3.470088 31.373882 -40.021569
158 53 2 0.4238 4.215273 30.773793 -39.992857
159 53 2 0.4238 3.857913 32.243329 -39.916090
160 54 1 -0.8476 -7.076157 -23.346006 -27.181697
161 54 2 0.4238 -6.490930 -22.590399 -27.234596
162 54 2 0.4238 -7.956663 -22.970317 -27.213958
163 55 1 -0.8476 -18.909847 -10.872267 -19.200469
164 55 2 0.4238 -19.056450 -11.736836 -19.584212
165 55 2 0.4238 -19.522423 -10.298075 -19.661475
166 56 1 -0.8476 25.131604 -11.457156 35.825417
167 56 2 0.4238 24.185102 -11.455113 35.968111
168 56 2 0.4238 25.491125 -11.879490 36.606347
169 57 1 -0.8476 -35.052407 8.738153 -13.888659
170 57 2 0.4238 -35.610281 8.069794 -14.286534
171 57 2 0.4238 -34.190631 8.324860 -13.825372
172 58 1 -0.8476 -7.163491 -30.764720 -20.255452
173 58 2 0.4238 -7.531490 -29.915595 -20.499984
174 58 2 0.4238 -6.485013 -30.930011 -20.911058
175 59 1 -0.8476 -7.675850 33.654400 2.579383
176 59 2 0.4238 -6.810753 33.381206 2.884676
177 59 2 0.4238 -7.608012 34.605225 2.485564
178 60 1 -0.8476 5.058734 35.664800 3.046692
179 60 2 0.4238 4.802333 35.111191 2.309123
180 60 2 0.4238 5.969917 35.898427 2.866030
181 61 1 -0.8476 -28.197640 -16.284472 34.176899
182 61 2 0.4238 -28.744329 -17.068055 34.234878
183 61 2 0.4238 -27.301971 -16.608773 34.277299
184 62 1 -0.8476 14.378383 29.338982 2.772831
185 62 2 0.4238 15.200283 29.713765 3.089456
186 62 2 0.4238 13.963599 28.974468 3.555491
187 63 1 -0.8476 24.731267 -20.041578 19.127383
188 63 2 0.4238 24.624816 -20.865325 18.651631
189 63 2 0.4238 24.724538 -19.368350 18.446067
190 64 1 -0.8476 21.073279 14.878693 -28.634786
191 64 2 0.4238 21.897581 15.347996 -28.506280
192 64 2 0.4238 20.407748 15.566837 -28.666414
193 65 1 -0.8476 11.761118 33.417426 -13.823972
194 65 2 0.4238 11.236897 33.003624 -13.138267
195 65 2 0.4238 12.580111 32.920787 -13.832564
196 66 1 -0.8476 -1.876683 -15.661974 37.330339
197 66 2 0.4238 -1.833153 -15.160889 36.515937
198 66 2 0.4238 -1.020582 -15.530203 37.739240
199 67 1 -0.8476 -20.204804 35.416721 26.010210
200 67 2 0.4238 -21.029012 34.959548 26.177263
201 67 2 0.4238 -20.414017 36.042726 25.316077
202 68 1 -0.8476 -39.216899 -35.795215 28.163370
203 68 2 0.4238 -38.349960 -36.078798 28.453595
204 68 2 0.4238 -39.485194 -36.457828 27.525847
205 69 1 -0.8476 -18.135798 -5.392162 11.719758
206 69 2 0.4238 -19.084145 -5.276338 11.660985
207 69 2 0.4238 -18.017369 -6.331232 11.866711
208 70 1 -0.8476 -37.799500 22.519415 12.627579
209 70 2 0.4238 -36.998439 21.995468 12.631154
210 70 2 0.4238 -38.280429 22.217294 11.856279
211 71 1 -0.8476 4.197751 -20.585186 -39.620583
212 71 2 0.4238 5.144762 -20.720981 -39.651608
213 71 2 0.4238 4.067534 -19.715117 -39.999394
214 72 1 -0.8476 -9.901312 14.911919 28.674659
215 72 2 0.4238 -9.547653 14.616113 27.835816
216 72 2 0.4238 -9.185408 14.779394 29.297067
217 73 1 -0.8476 -24.121065 5.536965 -19.408915
218 73 2 0.4238 -24.632466 5.209117 -20.148655
219 73 2 0.4238 -23.525341 4.818957 -19.192002
220 74 1 -0.8476 0.985526 -25.457607 36.752425
221 74 2 0.4238 0.680106 -26.250249 37.193639
222 74 2 0.4238 1.783460 -25.728688 36.297134
223 75 1 -0.8476 8.970848 4.483963 39.418393
224 75 2 0.4238 8.260641 4.757047 39.999136
225 75 2 0.4238 9.613974 4.077618 40.000412
226 76 1 -0.8476 19.991436 5.437741 -19.672166
227 76 2 0.4238 19.976028 5.741776 -20.579667
228 76 2 0.4238 19.260289 4.821790 -19.612982
229 77 1 -0.8476 25.370737 32.579560 -11.586517
230 77 2 0.4238 24.974465 33.387196 -11.259525
231 77 2 0.4238 26.116031 32.425348 -11.004944
232 78 1 -0.8476 35.854317 -38.545230 -29.147549
233 78 2 0.4238 35.896849 -37.614221 -29.365830
234 78 2 0.4238 36.146641 -38.591741 -28.236584
235 79 1 -0.8476 -7.056061 24.113064 17.143737
236 79 2 0.4238 -6.117656 23.979815 17.277426
237 79 2 0.4238 -7.413684 23.228969 17.054541
238 80 1 -0.8476 7.550522 0.278293 18.436946
239 80 2 0.4238 6.885964 -0.389777 18.605103
240 80 2 0.4238 8.343140 -0.218284 18.230451
241 81 1 -0.8476 -19.615265 34.426083 5.467739
242 81 2 0.4238 -20.131734 33.753915 5.023125
243 81 2 0.4238 -18.955674 34.686848 4.823989
244 82 1 -0.8476 12.034858 -17.782598 -1.373491
245 82 2 0.4238 11.347314 -17.849069 -0.710847
246 82 2 0.4238 12.297378 -16.861604 -1.355386
247 83 1 -0.8476 12.502160 -33.362188 -15.490689
248 83 2 0.4238 13.011454 -34.171479 -15.447112
249 83 2 0.4238 13.152906 -32.664320 -15.407125
250 84 1 -0.8476 -22.727862 5.384984 -30.170756
251 84 2 0.4238 -23.657153 5.457327 -30.388509
252 84 2 0.4238 -22.715294 5.199166 -29.231188
253 85 1 -0.8476 -35.486304 -39.169067 -29.304885
254 85 2 0.4238 -35.898149 -38.622242 -28.635857
255 85 2 0.4238 -34.845963 -39.694871 -28.824295
256 86 1 -0.8476 -8.446340 -7.696663 17.983928
257 86 2 0.4238 -8.844616 -7.129980 18.644592
258 86 2 0.4238 -7.660987 -7.224660 17.704808
259 87 1 -0.8476 -27.067159 37.512421 31.457638
260 87 2 0.4238 -26.284036 37.334610 31.978535
261 87 2 0.4238 -26.787785 37.379256 30.551167
262 88 1 -0.8476 23.051982 -18.563243 12.665960
263 88 2 0.4238 22.157969 -18.221474 12.678859
264 88 2 0.4238 23.604536 -17.795717 12.817818
265 89 1 -0.8476 -32.161775 8.727145 30.698033
266 89 2 0.4238 -33.043002 8.977800 30.420830
267 89 2 0.4238 -32.006055 9.237712 31.493361
268 90 1 -0.8476 20.322346 17.799286 13.113522
269 90 2 0.4238 20.662204 18.663121 13.347008
270 90 2 0.4238 21.076153 17.335939 12.746700
271 91 1 -0.8476 -34.778077 -15.688819 -35.817736
272 91 2 0.4238 -34.606775 -16.623176 -35.699988
273 91 2 0.4238 -34.514595 -15.508463 -36.720798
274 92 1 -0.8476 18.222497 -9.836869 31.898020
275 92 2 0.4238 18.986309 -9.585897 32.417478
276 92 2 0.4238 18.329891 -10.777461 31.752327
277 93 1 -0.8476 14.295437 -21.796916 -13.811285
278 93 2 0.4238 13.507418 -22.336360 -13.876550
279 93 2 0.4238 14.453297 -21.493438 -14.705967
280 94 1 -0.8476 5.195956 -8.106621 -25.064290
281 94 2 0.4238 5.122568 -7.325811 -24.515490
282 94 2 0.4238 4.739628 -8.789817 -24.571868
283 95 1 -0.8476 4.666468 0.240139 19.442662
284 95 2 0.4238 4.954886 -0.105571 20.287369
285 95 2 0.4238 3.711632 0.274006 19.510596
286 96 1 -0.8476 21.180983 -17.688550 -15.702848
287 96 2 0.4238 21.915038 -17.933840 -16.266079
288 96 2 0.4238 21.212004 -16.731726 -15.671268
289 97 1 -0.8476 -30.007891 -7.188657 -32.028217
290 97 2 0.4238 -29.175418 -7.596118 -32.267373
291 97 2 0.4238 -29.895001 -6.931778 -31.112388
292 98 1 -0.8476 -19.404562 23.427334 -25.662627
293 98 2 0.4238 -18.458980 23.279092 -25.651203
294 98 2 0.4238 -19.626738 23.488101 -26.592368
295 99 1 -0.8476 -33.785725 -13.419290 -20.798806
296 99 2 0.4238 -34.275135 -12.610532 -20.949206
297 99 2 0.4238 -32.943840 -13.128365 -20.446576
298 100 1 -0.8476 -33.128072 -26.681647 4.531318
299 100 2 0.4238 -32.171365 -26.712320 4.532754
300 100 2 0.4238 -33.397650 -27.600776 4.529635
301 101 1 -0.8476 22.251754 -10.429674 -27.937137
302 101 2 0.4238 23.064849 -10.919232 -27.812873
303 101 2 0.4238 22.307851 -10.094593 -28.832708
304 102 1 -0.8476 -24.787939 -29.520300 25.500164
305 102 2 0.4238 -24.118751 -29.072660 24.982440
306 102 2 0.4238 -24.492750 -30.430733 25.538228
307 103 1 -0.8476 -30.483210 -23.527411 -0.223078
308 103 2 0.4238 -29.821282 -22.836870 -0.258243
309 103 2 0.4238 -31.004062 -23.401228 -1.016971
310 104 1 -0.8476 -17.500927 -14.425673 -26.580279
311 104 2 0.4238 -16.916067 -13.976015 -25.970379
312 104 2 0.4238 -17.328439 -15.356734 -26.435892
313 105 1 -0.8476 -32.804049 -26.419335 -26.286901
314 105 2 0.4238 -33.757080 -26.471584 -26.359247
315 105 2 0.4238 -32.519806 -27.329759 -26.198538
316 106 1 -0.8476 -18.026117 -3.110888 38.782194
317 106 2 0.4238 -18.780630 -3.568071 39.153579
318 106 2 0.4238 -18.381063 -2.279160 38.466416
319 107 1 -0.8476 0.285643 25.849975 5.972713
320 107 2 0.4238 1.129485 25.486189 5.704717
321 107 2 0.4238 -0.146469 26.084654 5.150717
322 108 1 -0.8476 -39.028344 10.044752 5.235747
323 108 2 0.4238 -38.094142 10.249819 5.197716
324 108 2 0.4238 -39.224587 9.992155 6.171801
325 109 1 -0.8476 11.749803 -21.474778 28.442454
326 109 2 0.4238 12.276216 -22.145108 28.006818
327 109 2 0.4238 11.070521 -21.966412 28.905429
328 110 1 -0.8476 -5.497960 8.068337 35.551742
329 110 2 0.4238 -5.964139 7.267757 35.792534
330 110 2 0.4238 -4.588559 7.790835 35.435735
331 111 1 -0.8476 -39.035233 -20.696994 19.714713
332 111 2 0.4238 -39.209988 -21.628700 19.847437
333 111 2 0.4238 -38.403944 -20.671404 18.994787
334 112 1 -0.8476 -9.173710 -24.574866 5.068775
335 112 2 0.4238 -9.822985 -24.628216 4.367472
336 112 2 0.4238 -9.272175 -23.689238 5.420118
337 113 1 -0.8476 4.606517 -7.275640 -27.146012
338 113 2 0.4238 4.079687 -8.055888 -26.973112
339 113 2 0.4238 5.394186 -7.608673 -27.577453
340 114 1 -0.8476 -10.376249 35.143181 -38.475683
341 114 2 0.4238 -10.056745 36.042259 -38.399475
342 114 2 0.4238 -11.328282 35.219875 -38.403399
343 115 1 -0.8476 -12.424567 22.554565 -20.660979
344 115 2 0.4238 -12.711406 21.980072 -21.370848
345 115 2 0.4238 -11.470293 22.576463 -20.740694
346 116 1 -0.8476 8.539178 11.431837 -1.450504
347 116 2 0.4238 8.939022 11.689674 -2.281092
348 116 2 0.4238 9.261986 11.065754 -0.939618
349 117 1 -0.8476 3.126199 28.833395 -28.010143
350 117 2 0.4238 3.822765 28.965705 -28.653200
351 117 2 0.4238 2.498649 29.534740 -28.188385
352 118 1 -0.8476 15.463823 27.532361 -20.555365
353 118 2 0.4238 14.909142 28.261499 -20.278022
354 118 2 0.4238 16.145405 27.939611 -21.091152
355 119 1 -0.8476 8.841487 2.818818 -13.967535
356 119 2 0.4238 9.650551 2.321916 -14.088927
357 119 2 0.4238 8.276662 2.236924 -13.457784
358 120 1 -0.8476 -18.587114 -23.668840 24.822413
359 120 2 0.4238 -18.350352 -22.741568 24.803897
360 120 2 0.4238 -19.543439 -23.673467 24.768612
361 121 1 -0.8476 -3.947712 28.038605 -25.847631
362 121 2 0.4238 -4.778709 27.654868 -26.127670
363 121 2 0.4238 -4.132543 28.974477 -25.761282
364 122 1 -0.8476 -17.304268 40.003107 28.233631
365 122 2 0.4238 -16.674194 39.546151 28.790793
366 122 2 0.4238 -18.111358 39.493975 28.316479
367 123 1 -0.8476 35.004584 18.057099 12.232428
368 123 2 0.4238 34.213513 17.874392 12.739436
369 123 2 0.4238 34.964243 18.997566 12.055316
370 124 1 -0.8476 4.608518 0.188465 15.102840
371 124 2 0.4238 4.522205 0.666333 14.277962
372 124 2 0.4238 4.973461 -0.660643 14.851234
373 125 1 -0.8476 -0.063145 -33.599979 19.077521
374 125 2 0.4238 -0.706355 -34.059553 19.617247
375 125 2 0.4238 0.703103 -34.174726 19.075676
376 126 1 -0.8476 -25.414243 -1.324164 -32.667278
377 126 2 0.4238 -26.019772 -0.642838 -32.959443
378 126 2 0.4238 -24.558046 -1.037471 -32.986977
379 127 1 -0.8476 -13.917092 5.313413 10.467453
380 127 2 0.4238 -13.099011 5.647824 10.835073
381 127 2 0.4238 -13.640776 4.702354 9.783544
382 128 1 -0.8476 3.285986 37.046489 16.409081
383 128 2 0.4238 2.590058 36.594877 15.931626
384 128 2 0.4238 4.095373 36.647570 16.087788
385 129 1 -0.8476 37.417930 -26.860744 -3.011770
386 129 2 0.4238 36.862836 -26.167734 -2.654223
387 129 2 0.4238 37.009533 -27.673799 -2.712392
388 130 1 -0.8476 28.146121 35.664896 18.665859
389 130 2 0.4238 27.699712 36.179544 17.993484
390 130 2 0.4238 28.064432 34.758276 18.367799
391 131 1 -0.8476 30.850796 3.098742 35.921176
392 131 2 0.4238 31.739965 3.302725 36.211004
393 131 2 0.4238 30.342022 3.040259 36.730622
394 132 1 -0.8476 23.656854 -0.179198 37.609995
395 132 2 0.4238 24.069348 0.636185 37.324983
396 132 2 0.4238 23.366690 -0.001184 38.505309
397 133 1 -0.8476 30.584420 -16.395464 21.823555
398 133 2 0.4238 30.562194 -16.745040 20.932750
399 133 2 0.4238 31.504697 -16.455965 22.082210
400 134 1 -0.8476 -23.672426 34.408754 -27.190653
401 134 2 0.4238 -22.717310 34.455265 -27.147970
402 134 2 0.4238 -23.953622 35.320609 -27.273853
403 135 1 -0.8476 30.447761 35.772208 -21.702191
404 135 2 0.4238 30.618536 35.078654 -22.339412
405 135 2 0.4238 31.168648 35.704769 -21.075097
406 136 1 -0.8476 -27.804009 -6.787318 1.387484
407 136 2 0.4238 -28.398058 -6.920540 2.126124
408 136 2 0.4238 -26.972633 -7.164731 1.677046
409 137 1 -0.8476 9.138301 25.605879 29.843982
410 137 2 0.4238 9.815647 25.055232 29.451271
411 137 2 0.4238 9.457104 25.783635 30.729556
412 138 1 -0.8476 -21.328341 22.003367 -34.515914
413 138 2 0.4238 -20.591242 22.171016 -33.928708
414 138 2 0.4238 -20.925071 21.863555 -35.373410
415 139 1 -0.8476 -35.535759 29.956175 -24.138746
416 139 2 0.4238 -35.886899 29.568226 -24.940263
417 139 2 0.4238 -35.641747 30.900054 -24.262568
418 140 1 -0.8476 8.309408 -37.103271 -22.826990
419 140 2 0.4238 7.520557 -36.562025 -22.795403
420 140 2 0.4238 8.018172 -37.968992 -22.538575
421 141 1 -0.8476 -31.356193 -21.736339 29.957198
422 141 2 0.4238 -31.173662 -20.839761 30.238378
423 141 2 0.4238 -32.170097 -21.669852 29.456584
424 142 1 -0.8476 6.774689 16.300582 -15.917499
425 142 2 0.4238 6.500980 17.209915 -16.037618
426 142 2 0.4238 6.151734 15.944251 -15.283127
427 143 1 -0.8476 5.719783 -18.501453 -0.657368
428 143 2 0.4238 5.720900 -17.995349 0.155090
429 143 2 0.4238 5.971047 -19.386063 -0.389405
430 144 1 -0.8476 7.645343 -2.272112 4.811754
431 144 2 0.4238 7.645593 -1.333689 5.000417
432 144 2 0.4238 8.548207 -2.465997 4.557355
433 145 1 -0.8476 19.230324 -9.428725 -35.252533
434 145 2 0.4238 18.416072 -8.993486 -34.999963
435 145 2 0.4238 19.911055 -8.772940 -35.097532
436 146 1 -0.8476 -27.495861 -12.359510 31.443440
437 146 2 0.4238 -26.627066 -11.957842 31.434012
438 146 2 0.4238 -27.421902 -13.105384 30.847053
439 147 1 -0.8476 -26.459407 32.926373 -7.468951
440 147 2 0.4238 -25.737714 32.322582 -7.293371
441 147 2 0.4238 -27.249466 32.403513 -7.327892
442 148 1 -0.8476 28.066925 23.116215 11.920211
443 148 2 0.4238 28.717587 23.433953 11.294181
444 148 2 0.4238 28.231715 22.174576 11.980501
445 149 1 -0.8476 23.755696 9.316945 32.918428
446 149 2 0.4238 23.888635 9.042748 33.825828
447 149 2 0.4238 24.633691 9.313382 32.535563
448 150 1 -0.8476 -10.666395 -6.646719 -35.714266
449 150 2 0.4238 -11.579242 -6.882961 -35.878983
450 150 2 0.4238 -10.573503 -5.770840 -36.090671
451 151 1 -0.8476 7.186491 8.061614 5.451979
452 151 2 0.4238 6.809278 7.378843 6.006745
453 151 2 0.4238 6.431623 8.562958 5.141653
454 152 1 -0.8476 21.704991 -34.620900 -24.365586
455 152 2 0.4238 21.888407 -35.513573 -24.072797
456 152 2 0.4238 21.383101 -34.723672 -25.261855
457 153 1 -0.8476 -32.277344 35.426516 20.029458
458 153 2 0.4238 -32.724321 36.144483 20.477751
459 153 2 0.4238 -32.219538 34.732159 20.686725
460 154 1 -0.8476 28.496673 -39.392309 -5.093772
461 154 2 0.4238 28.671658 -39.581939 -4.172006
462 154 2 0.4238 29.289673 -39.673712 -5.551416
463 155 1 -0.8476 -2.937945 -16.580581 -35.970844
464 155 2 0.4238 -3.850503 -16.342830 -35.806696
465 155 2 0.4238 -2.853139 -17.466240 -35.616036
466 156 1 -0.8476 22.645821 -5.152566 38.681017
467 156 2 0.4238 22.906908 -4.901481 39.567032
468 156 2 0.4238 22.873779 -6.080730 38.617605
469 157 1 -0.8476 -13.378627 14.317321 -21.878560
470 157 2 0.4238 -12.594174 13.807390 -22.080641
471 157 2 0.4238 -14.106459 13.748816 -22.132600
472 158 1 -0.8476 -15.244906 6.858460 2.636583
473 158 2 0.4238 -14.770899 6.053566 2.845620
474 158 2 0.4238 -16.169044 6.622540 2.724807
475 159 1 -0.8476 -29.702639 23.251690 9.107676
476 159 2 0.4238 -30.042901 24.114770 8.871993
477 159 2 0.4238 -28.832318 23.219763 8.708933
478 160 1 -0.8476 -7.203651 -30.930202 -12.462147
479 160 2 0.4238 -6.744629 -30.570891 -11.702920
480 160 2 0.4238 -6.640313 -31.641695 -12.768581
481 161 1 -0.8476 21.560943 -12.290603 25.652661
482 161 2 0.4238 20.687078 -11.903673 25.599028
483 161 2 0.4238 22.156649 -11.540634 25.640251
484 162 1 -0.8476 34.782610 -30.556885 -22.912219
485 162 2 0.4238 35.687025 -30.515063 -23.222888
486 162 2 0.4238 34.583693 -29.662947 -22.631541
487 163 1 -0.8476 26.918135 -28.182497 -3.736006
488 163 2 0.4238 26.270754 -28.761150 -3.333153
489 163 2 0.4238 26.599588 -28.051357 -4.629764
490 164 1 -0.8476 -21.413125 -30.602779 -30.249363
491 164 2 0.4238 -20.763828 -29.902038 -30.309436
492 164 2 0.4238 -21.689080 -30.596270 -29.332150
493 165 1 -0.8476 38.299455 -8.094075 10.744335
494 165 2 0.4238 37.945602 -7.448384 10.132696
495 165 2 0.4238 37.900221 -7.871316 11.586038
496 166 1 -0.8476 -7.126315 -9.953788 26.085533
497 166 2 0.4238 -7.548907 -10.809964 26.017630
498 166 2 0.4238 -6.777856 -9.787949 25.208865
499 167 1 -0.8476 -12.083205 -27.544457 7.635752
500 167 2 0.4238 -11.453897 -27.157704 8.244542
501 167 2 0.4238 -11.825586 -27.206410 6.777364
502 168 1 -0.8476 -19.977558 27.571958 3.717350
503 168 2 0.4238 -19.798414 28.252323 3.068318
504 168 2 0.4238 -20.932205 27.559363 3.794583
505 169 1 -0.8476 3.802251 26.082664 30.455970
506 169 2 0.4238 3.595305 25.239534 30.859127
507 169 2 0.4238 4.716121 25.999510 30.181378
508 170 1 -0.8476 16.815102 16.287448 5.676335
509 170 2 0.4238 16.776917 15.445728 5.222153
510 170 2 0.4238 16.114840 16.240403 6.328174
511 171 1 -0.8476 -15.984104 -5.756912 30.633109
512 171 2 0.4238 -15.682910 -6.174580 31.439996
513 171 2 0.4238 -16.460535 -4.980165 30.928324
514 172 1 -0.8476 -19.937717 17.567988 26.280159
515 172 2 0.4238 -19.891927 16.833227 26.891928
516 172 2 0.4238 -20.792884 17.966011 26.446716
517 173 1 -0.8476 -34.027494 -28.005262 -15.238530
518 173 2 0.4238 -34.381338 -27.141113 -15.028118
519 173 2 0.4238 -33.080304 -27.871370 -15.287294
520 174 1 -0.8476 6.930975 -21.168481 -35.170142
521 174 2 0.4238 7.683353 -20.608969 -35.362770
522 174 2 0.4238 6.318156 -20.595754 -34.707637
523 175 1 -0.8476 6.421140 -28.003743 1.452564
524 175 2 0.4238 5.985356 -28.642309 2.016973
525 175 2 0.4238 6.174080 -27.153150 1.817156
526 176 1 -0.8476 32.210118 -3.354192 19.446980
527 176 2 0.4238 31.518750 -3.693471 18.878534
528 176 2 0.4238 31.742141 -2.927897 20.165830
529 177 1 -0.8476 33.809997 5.385994 -8.833455
530 177 2 0.4238 34.723463 5.619718 -8.998335
531 177 2 0.4238 33.428176 6.172061 -8.441302
532 178 1 -0.8476 1.345136 -3.500569 -33.461238
533 178 2 0.4238 1.732678 -2.839171 -32.888005
534 178 2 0.4238 0.850513 -2.996934 -34.108673
535 179 1 -0.8476 -32.136299 -29.095014 -17.508262
536 179 2 0.4238 -31.764017 -29.714827 -16.880990
537 179 2 0.4238 -33.033683 -28.955326 -17.203857
538 180 1 -0.8476 8.221426 30.870015 -15.602602
539 180 2 0.4238 8.245813 29.921022 -15.479921
540 180 2 0.4238 7.289093 31.089402 -15.592671
541 181 1 -0.8476 35.540138 20.969071 -25.727027
542 181 2 0.4238 35.888529 21.795744 -25.393160
543 181 2 0.4238 36.071319 20.295326 -25.301130
544 182 1 -0.8476 -29.760075 -6.143750 30.657409
545 182 2 0.4238 -29.700028 -5.251197 30.316855
546 182 2 0.4238 -28.881076 -6.334633 30.986649
547 183 1 -0.8476 25.376578 -7.169285 -37.732619
548 183 2 0.4238 24.845231 -6.946836 -36.968146
549 183 2 0.4238 25.277293 -8.117363 -37.826239
550 184 1 -0.8476 -31.042788 -20.254362 -27.060626
551 184 2 0.4238 -30.717016 -20.077118 -27.943060
552 184 2 0.4238 -30.450881 -19.769506 -26.484402
553 185 1 -0.8476 23.980512 4.683707 -14.285032
554 185 2 0.4238 24.537484 5.328230 -14.721614
555 185 2 0.4238 24.517191 3.891397 -14.243874
556 186 1 -0.8476 8.672188 -6.112016 11.405158
557 186 2 0.4238 8.200499 -6.944234 11.371180
558 186 2 0.4238 9.597288 -6.360337 11.405549
559 187 1 -0.8476 -34.757784 -34.925033 -8.861740
560 187 2 0.4238 -34.023138 -34.500558 -9.304853
561 187 2 0.4238 -34.814442 -35.791114 -9.266915
562 188 1 -0.8476 35.598046 3.852569 -30.543716
563 188 2 0.4238 34.706582 3.506648 -30.500560
564 188 2 0.4238 36.155196 3.074885 -30.591301
565 189 1 -0.8476 21.383161 30.060431 24.217982
566 189 2 0.4238 20.963083 30.525181 24.941704
567 189 2 0.4238 22.317705 30.086346 24.426380
568 190 1 -0.8476 -12.442436 3.208463 39.186253
569 190 2 0.4238 -11.582111 2.866538 38.943024
570 190 2 0.4238 -12.288566 3.687764 40.001156
571 191 1 -0.8476 -6.524654 -4.404916 10.863226
572 191 2 0.4238 -6.203340 -3.689416 10.314547
573 191 2 0.4238 -6.816795 -3.976997 11.668839
574 192 1 -0.8476 6.605796 34.259793 -4.682998
575 192 2 0.4238 6.861535 33.338522 -4.637286
576 192 2 0.4238 6.641004 34.472607 -5.616241
577 193 1 -0.8476 -14.567812 23.695745 -6.959571
578 193 2 0.4238 -13.614625 23.618197 -6.918918
579 193 2 0.4238 -14.738360 24.629392 -6.830377
580 194 1 -0.8476 -22.417507 -15.945775 -15.679391
581 194 2 0.4238 -23.252335 -16.308851 -15.975145
582 194 2 0.4238 -22.661507 -15.251345 -15.066443
583 195 1 -0.8476 21.245396 -26.840518 -3.805619
584 195 2 0.4238 21.169873 -26.019287 -3.319709
585 195 2 0.4238 20.572221 -27.406582 -3.426303
586 196 1 -0.8476 -1.734378 10.500609 21.741054
587 196 2 0.4238 -1.402691 9.680000 22.105493
588 196 2 0.4238 -1.518064 11.160819 22.400450
589 197 1 -0.8476 18.655244 7.324540 20.933626
590 197 2 0.4238 18.911516 6.498204 20.524082
591 197 2 0.4238 17.699777 7.338898 20.867679
592 198 1 -0.8476 -11.635057 -20.033894 -0.987927
593 198 2 0.4238 -12.355022 -19.405153 -1.038585
594 198 2 0.4238 -11.670414 -20.367452 -0.090730
595 199 1 -0.8476 -35.397455 -24.941856 7.510114
596 199 2 0.4238 -36.021068 -24.965916 8.235896
597 199 2 0.4238 -35.915277 -24.651859 6.758293
598 200 1 -0.8476 37.704389 25.843138 -9.027884
599 200 2 0.4238 37.163664 26.183502 -8.315142
600 200 2 0.4238 38.587457 25.799547 -8.659423
601 201 1 -0.8476 25.891487 31.658477 -26.135330
602 201 2 0.4238 25.726629 32.599510 -26.076084
603 201 2 0.4238 26.734448 31.534491 -25.697702
604 202 1 -0.8476 -22.276805 -9.343129 13.911036
605 202 2 0.4238 -22.758387 -10.152654 13.740800
606 202 2 0.4238 -22.913213 -8.646292 13.747097
607 203 1 -0.8476 -34.021264 -32.235323 -39.565201
608 203 2 0.4238 -34.509604 -32.870437 -39.041381
609 203 2 0.4238 -33.740018 -31.570562 -38.935545
610 204 1 -0.8476 26.879663 -29.376992 -19.137200
611 204 2 0.4238 27.086110 -30.255604 -19.456031
612 204 2 0.4238 27.733317 -28.965101 -18.999016
613 205 1 -0.8476 2.970743 21.980012 11.492731
614 205 2 0.4238 2.090437 21.700264 11.241664
615 205 2 0.4238 3.250814 21.335606 12.143710
616 206 1 -0.8476 -1.811033 -31.093943 10.365755
617 206 2 0.4238 -2.066750 -31.742778 11.021388
618 206 2 0.4238 -0.915046 -30.852785 10.603501
619 207 1 -0.8476 -34.234889 4.856819 4.587823
620 207 2 0.4238 -33.895173 5.737878 4.431107
621 207 2 0.4238 -34.348502 4.484247 3.712748
622 208 1 -0.8476 -10.044174 -9.400058 6.702664
623 208 2 0.4238 -10.911313 -9.033037 6.874706
624 208 2 0.4238 -9.493881 -8.638503 6.516423
625 209 1 -0.8476 12.366717 26.735408 -29.112104